
:LABEL1: Calculations in /home/n1/WIEN2k/MnTe-scf
:LABEL2: on n1 at Sun Oct 13 14:19:05 +0330 2019
:LABEL3: using WIEN2k_18.2 (Release 17/7/2018) in /home/n1/WIEN2k18
:LABEL4: using the command: runsp_lapw -in1new 5 -i 400 -ec 0.0001 -cc 0.001 -NI
 Flat Integration
 New Mode for Coulomb Integral
 Consistent 3/8+Simpson combinations
 Extension of core to zero
 LDM version in phi
 Fifth-order quadrature in outwin


            ---------
:ITE001:  1. ITERATION
            ---------

:NATO :    2 INDEPENDENT AND    4 TOTAL ATOMS IN UNITCELL
       SUBSTANCE: Title                                                       

       LATTICE                      = H   
:POT  : POTENTIAL OPTION EX_PBE EC_PBE VX_PBE VC_PBE
:LAT  : LATTICE CONSTANTS=  8.00498  8.00498 11.22975
:VOL  : UNIT CELL VOLUME =     623.19081
       MODE OF CALCULATION IS       = RELA
       SPINPOLARIZED CALCULATION
:IFFT  : FFT-parameters:   64   64   90 Factor: 2.00
       ATOMNUMBER=  1 Mn         VCOUL-ZERO =  0.43031E+00
:EFG001:                        EFG         =     0.03894   *10**21  V / m**2
                               V20  TOT/SRF=     0.03372     0.04880
                               V22  TOT/SRF=     0.00000     0.00000
                               V22M TOT/SRF=     0.00000     0.00000
                               V21  TOT/SRF=     0.00000     0.00000
                               V21M TOT/SRF=     0.00000     0.00000

             -0.01947    0.00000    0.00000       -0.01947    0.00000    0.00000
              0.00000   -0.01947    0.00000        0.00000   -0.01947    0.00000
              0.00000    0.00000    0.03894        0.00000    0.00000    0.03894

         MAIN DIRECTIONS OF THE EFG   1.0000  0.0000  0.0000
                                      0.0000  1.0000  0.0000
                                      0.0000  0.0000  1.0000
:ANG001:  ANGLE WITH OLD X-AXIS =         0.0

:ETA001:                         ASYMM. ETA =     0.00000


       ATOMNUMBER=  2 Te         VCOUL-ZERO =  0.34272E+00
:EFG002:                        EFG         =    -0.02075   *10**21  V / m**2
                               V20  TOT/SRF=    -0.01797    -0.02966
                               V22  TOT/SRF=     0.00000     0.00000
                               V22M TOT/SRF=     0.00000     0.00000
                               V21  TOT/SRF=     0.00000     0.00000
                               V21M TOT/SRF=     0.00000     0.00000

              0.01037    0.00000    0.00000        0.01037    0.00000    0.00000
              0.00000    0.01037    0.00000        0.00000    0.01037    0.00000
              0.00000    0.00000   -0.02075        0.00000    0.00000   -0.02075

         MAIN DIRECTIONS OF THE EFG   1.0000  0.0000  0.0000
                                      0.0000  1.0000  0.0000
                                      0.0000  0.0000  1.0000
:ANG002:  ANGLE WITH OLD X-AXIS =         0.0

:ETA002:                         ASYMM. ETA =     0.00000


:FIT001: LUSE= 13 SIGMA OF V-XC FIT FOR ATOM  1  0.3576323E-02
:FIT001: LUSE= 13 SIGMA OF V-XC FIT FOR ATOM  1  0.4293108E-02
:FIT002: LUSE= 13 SIGMA OF V-XC FIT FOR ATOM  2  0.4261984E-03
:FIT002: LUSE= 13 SIGMA OF V-XC FIT FOR ATOM  2  0.4242842E-03
:DEN  : DENSITY INTEGRAL  =        -12620.34501717   (Ry)
       ELS_POTENTIAL_AT Z=0 and Z=0.5:   0.05464   0.05464
       ELS_POTENTIAL_AT Y=0 and Y=0.5:   0.00000   0.00000
:VZERO:v0,v0c,v0x  -0.68787   0.05464  -0.74251 v5,v5c,v5x  -0.68787   0.05464  -0.74251
:VZERY:v0,v0c,v0x  -0.77181   0.00000  -0.77181 v5,v5c,v5x  -0.77181   0.00000  -0.77181
:VZERX:v0,v0c,v0x  -1.31935  -0.44477  -0.87459 v5,v5c,v5x  -0.29026   0.44532  -0.73558
:LMAX-WF:   10   Non-Spherical LMAX:   4

          ATOMIC SPHERE DEPENDENT PARAMETERS FOR ATOM  Mn        
:e__0001: OVERALL ENERGY PARAMETER IS    0.3000
          OVERALL BASIS SET ON ATOM IS LAPW
:E0_0001: E( 0)=    0.3000
             APW+lo
:E0_0001: E( 0)=   -5.5542   E(BOTTOM)=   -5.565   E(TOP)=   -5.543  2  3   156
             LOCAL ORBITAL
:E1_0001: E( 1)=    0.3000
             APW+lo
:E1_0001: E( 1)=   -3.2616   E(BOTTOM)=   -3.295   E(TOP)=   -3.229  1  2   148
             LOCAL ORBITAL
:E2_0001: E( 2)=    0.2178   E(BOTTOM)=    0.002   E(TOP)=    0.433  0  1   121
             APW+lo

          ATOMIC SPHERE DEPENDENT PARAMETERS FOR ATOM  Te        
:e__0002: OVERALL ENERGY PARAMETER IS    0.3000
          OVERALL BASIS SET ON ATOM IS LAPW
:E1_0002: E( 1)=    0.3000
             APW+lo
:E1_0002: E( 1)=   -7.5172   E(BOTTOM)=   -7.521   E(TOP)=   -7.513  2  3   136
             LOCAL ORBITAL
:E2_0002: E( 2)=    0.3000
             APW+lo
:E2_0002: E( 2)=   -2.1958   E(BOTTOM)=   -2.252   E(TOP)=   -2.140  1  2   150
             LOCAL ORBITAL
:E0_0002: E( 0)=    0.7000
             APW+lo
:E0_0002: E( 0)=   -0.0827   E(BOTTOM)=   -1.101   E(TOP)=    0.936  4  5   206
             LOCAL ORBITAL

       K=   0.00000   0.00000   0.00000            1
:RKM  : MATRIX SIZE   749LOs:  62  RKM= 9.99  WEIGHT= 1.00  PGR:    
       EIGENVALUES ARE:
:EIG00001:      -7.5169494   -7.5169494   -7.5169467   -7.5169467   -7.5158284
:EIG00006:      -7.5158252   -5.5524085   -5.5520617   -3.2586435   -3.2543822
:EIG00011:      -3.2540275   -3.2540275   -3.2536370   -3.2536370   -2.1844249
:EIG00016:      -2.1844249   -2.1844216   -2.1844216   -2.1838471   -2.1838471
:EIG00021:      -2.1833719   -2.1833719   -2.1821446   -2.1821284   -0.4770217
:EIG00026:      -0.3302226    0.0216521    0.1254349    0.1254349    0.1700831
:EIG00031:       0.2154579    0.2154579    0.2340932    0.2340932    0.2689368
:EIG00036:       0.2689368    0.3407137    0.3775816    0.3775816    0.4957951
:EIG00041:       0.5069576    0.5069576    0.6071156    0.6127858    0.8098625
:EIG00046:       0.8098625    0.9490102    0.9490102    1.0125201    1.0464643
 
:EIG00051:       1.0761310    1.0761310    1.0906250    1.0906250    1.1219293
:EIG00056:       1.1749474    1.2599598    1.7563666    1.7563666    1.7593198
:EIG00061:       1.7593198    1.7654042    1.7738740    1.7738740    1.9001559
:EIG00066:       1.9001559    1.9456293    1.9584424    1.9685695
       ********************************************************

:KPT   :      NUMBER OF K-POINTS:   120
:LMAX-WF:   10   Non-Spherical LMAX:   4

          ATOMIC SPHERE DEPENDENT PARAMETERS FOR ATOM  Mn        
:e__0001: OVERALL ENERGY PARAMETER IS    0.3000
          OVERALL BASIS SET ON ATOM IS LAPW
:E0_0001: E( 0)=    0.3000
             APW+lo
:E0_0001: E( 0)=   -5.1769   E(BOTTOM)=   -5.189   E(TOP)=   -5.165  2  3   190
             LOCAL ORBITAL
:E1_0001: E( 1)=    0.3000
             APW+lo
:E1_0001: E( 1)=   -2.8921   E(BOTTOM)=   -2.929   E(TOP)=   -2.855  1  2   190
             LOCAL ORBITAL
:E2_0001: E( 2)=    0.5553   E(BOTTOM)=    0.307   E(TOP)=    0.803  0  1   123
             APW+lo

          ATOMIC SPHERE DEPENDENT PARAMETERS FOR ATOM  Te        
:e__0002: OVERALL ENERGY PARAMETER IS    0.3000
          OVERALL BASIS SET ON ATOM IS LAPW
:E1_0002: E( 1)=    0.3000
             APW+lo
:E1_0002: E( 1)=   -7.5099   E(BOTTOM)=   -7.514   E(TOP)=   -7.506  3  3   134
             LOCAL ORBITAL
:E2_0002: E( 2)=    0.3000
             APW+lo
:E2_0002: E( 2)=   -2.1825   E(BOTTOM)=   -2.236   E(TOP)=   -2.130  1  2   151
             LOCAL ORBITAL
:E0_0002: E( 0)=    0.7000
             APW+lo
:E0_0002: E( 0)=   -0.0112   E(BOTTOM)=   -1.011   E(TOP)=    0.988  4  5   203
             LOCAL ORBITAL

       K=   0.00000   0.00000   0.00000            1
:RKM  : MATRIX SIZE   749LOs:  62  RKM= 9.99  WEIGHT= 1.00  PGR:    
       EIGENVALUES ARE:
:EIG00001:      -7.5096654   -7.5096654   -7.5096625   -7.5096625   -7.5085354
:EIG00006:      -7.5085324   -5.1749409   -5.1745320   -2.8890935   -2.8838700
:EIG00011:      -2.8837419   -2.8837419   -2.8832435   -2.8832435   -2.1719677
:EIG00016:      -2.1719677   -2.1719643   -2.1719643   -2.1713578   -2.1713578
:EIG00021:      -2.1709356   -2.1709356   -2.1696869   -2.1696757   -0.3875593
:EIG00026:      -0.2460986    0.1370365    0.3188899    0.3188899    0.4449618
:EIG00031:       0.4772901    0.4772901    0.5073520    0.5073520    0.5437355
:EIG00036:       0.5437355    0.5894355    0.6055964    0.6055964    0.6794242
:EIG00041:       0.6962823    0.7502369    0.7502369    0.7519689    0.9087242
:EIG00046:       0.9087242    1.0803774    1.0803774    1.1083960    1.1636910
 
:EIG00051:       1.2202534    1.2202534    1.2232737    1.2232737    1.2669595
:EIG00056:       1.2805183    1.3568560    1.8436731    1.8508684    1.8508684
:EIG00061:       1.8522279    1.8522279    1.8776739    1.8776739
       ********************************************************

:KPT   :      NUMBER OF K-POINTS:   120
:GAP (global)   :    0.0    Ry =     0.0   eV (metal)
:GAP (this spin):    0.0    Ry =     0.0   eV (metal)
         Bandranges (emin - emax) and occupancy:
:BAN00032:  32    0.178699    0.216705  1.00000000
:BAN00033:  33    0.200673    0.234093  1.00000000
:BAN00034:  34    0.220333    0.247554  1.00000000
:BAN00035:  35    0.237823    0.268937  1.00000000
:BAN00036:  36    0.241199    0.269069  1.00000000
:BAN00037:  37    0.254995    0.340714  1.00000000
:BAN00038:  38    0.259170    0.405870  1.00000000
:BAN00039:  39    0.272757    0.453853  1.00000000
:BAN00040:  40    0.293795    0.495795  1.00000000
:BAN00041:  41    0.364751    0.524204  0.98022629
:BAN00042:  42    0.383809    0.541091  0.53574932
:BAN00043:  43    0.564077    0.755205  0.00000000
:BAN00044:  44    0.612786    0.832049  0.00000000
:BAN00045:  45    0.714125    0.935031  0.00000000
:BAN00046:  46    0.773567    0.958926  0.00000000
:BAN00047:  47    0.817721    1.104270  0.00000000
        Energy to separate low and high energystates:   -0.04760


:NOE  : NUMBER OF ELECTRONS          =  74.000

:FER  : F E R M I - ENERGY(TETRAH.M.)=   0.4974500563
:GMA  : POTENTIAL AND CHARGE CUT-OFF  12.00 Ry**.5




:POS001: ATOM   -1 X,Y,Z = 0.00000 0.00000 0.00000  MULT= 2  ZZ= 25.000  Mn        

       LMMAX  7
       LM=   0 0  2 0  4 0  4 3  6 0  6 3  6 6

:CHA001: TOTAL VALENCE CHARGE INSIDE SPHERE   1 =   8.9927    (RMT=  2.5000 )
:PCS001: PARTIAL CHARGES SPHERE =  1 S,P,D,F,PZ,PXY, D-Z2,D-XY,X2Y2,D-XZ,YZ 
:QTL001: 1.1866 3.1839 4.6092 0.0109 1.0620 2.1220 0.0000 0.9165 1.8451 1.8476 0.0000 0.0000
        Q-s-low E-s-low   Q-p-low E-p-low   Q-d-low E-d-low   Q-f-low E-f-low
:EPL001:  1.0203 -5.4481    3.0116 -3.2381    0.0185 -0.3833    0.0013 -0.5431
        Q-s-hi  E-s-hi    Q-p-hi  E-p-hi    Q-d-hi  E-d-hi    Q-f-hi  E-f-hi 
:EPH001:  0.1664  0.1522    0.1724  0.2552    4.5906  0.2471    0.0096  0.3057
:VZZ001: EFG INSIDE SPHERE   1 =     0.347307      UP TO R =   2.50000




:POS002: ATOM   -2 X,Y,Z = 0.33333 0.66667 0.75000  MULT= 2  ZZ= 52.000  Te        

       LMMAX  7
       LM=   0 0  2 0  3 3  4 0  5 3  6 0  6 6

:CHA002: TOTAL VALENCE CHARGE INSIDE SPHERE   2 =   9.9058    (RMT=  2.5000 )
:PCS002: PARTIAL CHARGES SPHERE =  2 S,P,D,F,PZ,PXY, D-Z2,D-XY,X2Y2,D-XZ,YZ 
:QTL002: 0.7347 4.1424 5.0178 0.0089 1.3956 2.7468 0.0000 1.0006 2.0068 2.0104 0.0000 0.0000
        Q-s-low E-s-low   Q-p-low E-p-low   Q-d-low E-d-low   Q-f-low E-f-low
:EPL002:  0.6610 -0.3742    3.0027 -7.5095    4.9803 -2.1835    0.0003 -0.7330
        Q-s-hi  E-s-hi    Q-p-hi  E-p-hi    Q-d-hi  E-d-hi    Q-f-hi  E-f-hi 
:EPH002:  0.0737  0.2916    1.1398  0.2525    0.0375  0.2639    0.0086  0.2642
:VZZ002: EFG INSIDE SPHERE   2 =    -6.815196      UP TO R =   2.50000

:CHA  : TOTAL VALENCE CHARGE INSIDE UNIT CELL =      41.515976

:SUM  : SUM OF EIGENVALUES =         -94.589694361

:GAP (global)   :    0.0    Ry =     0.0   eV (metal)
:GAP (this spin):    0.0    Ry =     0.0   eV (metal)
         Bandranges (emin - emax) and occupancy:
:BAN00023:  23   -2.169688   -2.169585  1.00000000
:BAN00024:  24   -2.169682   -2.169585  1.00000000
:BAN00025:  25   -0.387559   -0.267615  1.00000000
:BAN00026:  26   -0.319271   -0.243971  1.00000000
:BAN00027:  27    0.119534    0.288704  1.00000000
:BAN00028:  28    0.143321    0.352283  1.00000000
:BAN00029:  29    0.203675    0.360628  1.00000000
:BAN00030:  30    0.222695    0.447275  1.00000000
:BAN00031:  31    0.320488    0.477290  1.00000000
:BAN00032:  32    0.332237    0.477290  1.00000000
:BAN00033:  33    0.440298    0.536643  0.48402560
:BAN00034:  34    0.507352    0.558666  0.00000000
:BAN00035:  35    0.515022    0.570072  0.00000000
:BAN00036:  36    0.543735    0.582368  0.00000000
:BAN00037:  37    0.548741    0.599634  0.00000000
:BAN00038:  38    0.548741    0.618301  0.00000000
        Energy to separate low and high energystates:    0.06953


:NOE  : NUMBER OF ELECTRONS          =  74.000

:FER  : F E R M I - ENERGY(TETRAH.M.)=   0.4974500563
:GMA  : POTENTIAL AND CHARGE CUT-OFF  12.00 Ry**.5




:POS001: ATOM   -1 X,Y,Z = 0.00000 0.00000 0.00000  MULT= 2  ZZ= 25.000  Mn        

       LMMAX  7
       LM=   0 0  2 0  4 0  4 3  6 0  6 3  6 6

:CHA001: TOTAL VALENCE CHARGE INSIDE SPHERE   1 =   4.9298    (RMT=  2.5000 )
:PCS001: PARTIAL CHARGES SPHERE =  1 S,P,D,F,PZ,PXY, D-Z2,D-XY,X2Y2,D-XZ,YZ 
:QTL001: 1.1402 3.1327 0.6484 0.0072 1.0517 2.0809 0.0000 0.1910 0.1943 0.2630 0.0000 0.0000
        Q-s-low E-s-low   Q-p-low E-p-low   Q-d-low E-d-low   Q-f-low E-f-low
:EPL001:  1.0174 -5.0896    3.0090 -2.8706    0.0125 -0.3054    0.0012 -0.4525
        Q-s-hi  E-s-hi    Q-p-hi  E-p-hi    Q-d-hi  E-d-hi    Q-f-hi  E-f-hi 
:EPH001:  0.1228  0.2098    0.1237  0.2973    0.6358  0.3816    0.0060  0.3350
:VZZ001: EFG INSIDE SPHERE   1 =    -3.337275      UP TO R =   2.50000




:POS002: ATOM   -2 X,Y,Z = 0.33333 0.66667 0.75000  MULT= 2  ZZ= 52.000  Te        

       LMMAX  7
       LM=   0 0  2 0  3 3  4 0  5 3  6 0  6 6

:CHA002: TOTAL VALENCE CHARGE INSIDE SPHERE   2 =   9.7274    (RMT=  2.5000 )
:PCS002: PARTIAL CHARGES SPHERE =  2 S,P,D,F,PZ,PXY, D-Z2,D-XY,X2Y2,D-XZ,YZ 
:QTL002: 0.7048 4.0168 5.0020 0.0031 1.3395 2.6773 0.0000 1.0006 2.0031 1.9983 0.0000 0.0000
        Q-s-low E-s-low   Q-p-low E-p-low   Q-d-low E-d-low   Q-f-low E-f-low
:EPL002:  0.6761 -0.2866    3.0026 -7.5024    4.9819 -2.1710    0.0002 -0.7283
        Q-s-hi  E-s-hi    Q-p-hi  E-p-hi    Q-d-hi  E-d-hi    Q-f-hi  E-f-hi 
:EPH002:  0.0286  0.2374    1.0142  0.2986    0.0201  0.3552    0.0029  0.3689
:VZZ002: EFG INSIDE SPHERE   2 =    -1.044096      UP TO R =   2.50000

:CHA  : TOTAL VALENCE CHARGE INSIDE UNIT CELL =      32.484026

:SUM  : SUM OF EIGENVALUES =         -93.004505795


        1.ATOM      Mn                    4 CORE STATES
:1S 001: 1S                -471.506636351 Ry
:2S 001: 2S                 -53.771275224 Ry
:2PP001: 2P*                -45.905156627 Ry
:2P 001: 2P                 -45.140064653 Ry

        2.ATOM      Te                   10 CORE STATES
:1S 002: 1S               -2322.168033678 Ry
:2S 002: 2S                -355.229572606 Ry
:2PP002: 2P*               -332.754419637 Ry
:2P 002: 2P                -312.579677002 Ry
:3S 002: 3S                 -69.981197782 Ry
:3PP002: 3P*                -60.743312452 Ry
:3P 002: 3P                 -56.983225047 Ry
:3DD002: 3D*                -40.694460419 Ry
:3D 002: 3D                 -39.908279052 Ry
:4S 002: 4S                 -11.188181473 Ry

        1.ATOM      Mn                    4 CORE STATES
:1S 001: 1S                -471.507482641 Ry
:2S 001: 2S                 -53.619873573 Ry
:2PP001: 2P*                -45.792108452 Ry
:2P 001: 2P                 -45.023897157 Ry

        2.ATOM      Te                   10 CORE STATES
:1S 002: 1S               -2322.164690055 Ry
:2S 002: 2S                -355.228073601 Ry
:2PP002: 2P*               -332.751376394 Ry
:2P 002: 2P                -312.576861553 Ry
:3S 002: 3S                 -69.978209797 Ry
:3PP002: 3P*                -60.739888977 Ry
:3P 002: 3P                 -56.979831403 Ry
:3DD002: 3D*                -40.691279121 Ry
:3D 002: 3D                 -39.905072086 Ry
:4S 002: 4S                 -11.180967001 Ry
:CINT001 Core Integral Atom   1 Up    5.000000 Dn   5.000000 Total  10.000000
:CINT002 Core Integral Atom   2 Up   14.999983 Dn  14.999984 Total  29.999967

       DENSITY AT NUCLEUS
        JATOM        VALENCE       SEMI-CORE          CORE           TOTAL
:RTO001:   1      163.113168        0.000000    13171.088882    13334.202051
:RTO002:   2      160.512495        0.000000   322100.628856   322261.141352

       HYPERFINE FIELDS FOR THOMSON RADIUS
:HFF001:          752.425           0.000       -1002.399        -249.974 (KGAUSS)
:HFF002:          669.627           0.000          28.290         697.917 (KGAUSS)
     
       CHARGES OF NEW CHARGE DENSITY
:NTO   : INTERSTITIAL     UP =     3.719010 DN =     3.169733 TOT =     6.888743
:NPC   : INTERSTITIAL     UP =     9.030740 DN =     6.972064 TOT =    16.002804
:NTO001: CHARGE SPHERE  1 UP =    13.992683 DN =     9.929786 TOT =    23.922469
:NTO002: CHARGE SPHERE  2 UP =    24.905782 DN =    24.727344 TOT =    49.633125

:NEC01: NUCLEAR AND ELECTRONIC CHARGE    154.00000   153.99993
     
       CHARGES OF OLD CHARGE DENSITY
:OTO   : INTERSTITIAL     UP =     4.530660 DN =     2.385785 TOT =     6.916445
:OPC   : INTERSTITIAL     UP =    12.993145 DN =     6.312031 TOT =    19.305175
:OTO001: CHARGE SPHERE  1 UP =    14.369143 DN =     9.418406 TOT =    23.787548
:OTO002: CHARGE SPHERE  2 UP =    25.365884 DN =    24.388977 TOT =    49.754861

:NEC02: NUCLEAR AND ELECTRONIC CHARGE    154.00000   154.00126
     
       CONVERGENCE TEST
:DTO001: DIFFERENCE SPHERE  1 UP =  0.3038345 DN =  0.4545771 TOT =  0.7584116
:DTO002: DIFFERENCE SPHERE  2 UP =  0.2601994 DN =  0.1825782 TOT =  0.4427776

:DIS  :  CHARGE DISTANCE       ( 0.4545771 for atom    1 spin 2)      1.2011892
 
******************************************************
* MULTISECANT MIXING VER9 RELEASE 9.4.1              *
* Standard Mode with controls                        *
* Fixed density scale                                *
* Regularization       1.000E-04                     *
* Trust Upper Limit    5.000E+00                     *
* Max Number of Memory Steps    8                    *
******************************************************
 
:PWTMP   3.6139E+02  5.0000E+02  6.2319E+02
:PLANE:  PW TOTAL      6.1526 DISTAN   2.39E+00  3.89E+01 %
:CHARG:  CLM/ATOM    400.3798 DISTAN   4.57E-01  1.14E-01 %
INFO: Reducing dbase  2.50000E-02 1.20119E+00 2.28105E-02
 
Step History
        DMIX         DMIXT        Red     Pred      Trust     Lambda    MagRel    MagAbs     Beta
  1   3.5000E-02   3.5000E-02 -1.00E+00  1.00E+00 -1.00E+01  1.00E+00  3.50E-02  3.50E-02  1.00E+00
:INFO :  Note, Pratt in use
INFO: Reducing dbase  2.28105E-02 1.20119E+00 2.08127E-02
:TRUST:  Step 3.75E-02  Charge 5.00E-02 (e) CTO  2.50E-01 (e) PW  3.50E-01 (e)
:DIRM :  MEMORY  0/ 8 SCALE   1.000
:MIX  :   PRATT  REGULARIZATION:  1.00E-04 GREED: 0.02500                  
     
       CHARGES OF MIXED CHARGE DENSITY
:CTO   : INTERSTITIAL     UP =     4.509563 DN =     2.404960 TOT =     6.914523
:CPC   : INTERSTITIAL     UP =    12.891773 DN =     6.327409 TOT =    19.219182
:CTO001: CHARGE SPHERE  1 UP =    14.359731 DN =     9.431190 TOT =    23.790921
:CTO002: CHARGE SPHERE  2 UP =    25.354382 DN =    24.397436 TOT =    49.751817

       SPIN MAGNETIC MOMENTS OF MIXED CHARGE DENSITY
:MMINT:  MAGNETIC MOMENT IN INTERSTITIAL  =    2.10460
:MMI001: MAGNETIC MOMENT IN SPHERE   1    =    4.92854
:MMI002: MAGNETIC MOMENT IN SPHERE   2    =    0.95695
:MMTOT:  SPIN MAGNETIC MOMENT IN CELL     =   13.87558

:NEC03: NUCLEAR AND ELECTRONIC CHARGE    154.00000   154.00000

PW CHANGE     H    K    L      Current       Change    Residue
:PUP001:      0    0    0  2.79229666E-02 -1.914E-04 -7.655E-03
:PUP003:     -1    0    0  8.69329167E-04  4.482E-05  1.793E-03
:PUP004:     -1    0   -1  7.40811711E-02 -7.021E-04 -2.808E-02
:PUP005:      0    0   -2 -6.22080164E-03  7.196E-05  2.878E-03
:PUP006:     -1    0   -2  4.54393904E-02 -6.044E-04 -2.418E-02
:PUP007:     -2    1    0  2.60992764E-02 -3.843E-04 -1.537E-02
:PUP010:     -2    0    0  4.92317260E-04 -3.349E-05 -1.339E-03
:PUP011:     -2    0   -1 -1.44906520E-02  3.276E-04  1.310E-02
:PUP012:     -1    0   -3 -1.41707776E-02  3.055E-04  1.222E-02
:PUP013:     -2    1   -2 -7.07739571E-03  1.400E-04  5.600E-03
:PUP014:     -2    0   -2  1.01285220E-02 -2.565E-04 -1.026E-02
:PUP015:      0    0   -4  1.90994814E-03 -6.339E-05 -2.535E-03
  
:PDN001:      0    0    0  1.40123515E-02  5.799E-05  2.320E-03
:PDN003:     -1    0    0 -7.61803168E-03  7.033E-05  2.813E-03
:PDN004:     -1    0   -1  4.35408465E-02 -1.623E-05 -6.493E-04
:PDN005:      0    0   -2 -6.09028544E-03  1.120E-05  4.479E-04
:PDN006:     -1    0   -2  1.81802895E-02 -9.649E-05 -3.860E-03
:PDN007:     -2    1    0  1.22788005E-02 -7.299E-05 -2.920E-03
:PDN010:     -2    0    0 -1.90795912E-03  4.161E-05  1.664E-03
:PDN011:     -2    0   -1 -8.67819378E-03  2.021E-04  8.086E-03
:PDN012:     -1    0   -3 -8.50458866E-03  1.513E-04  6.051E-03
:PDN013:     -2    1   -2 -7.36341264E-03  1.786E-04  7.145E-03
:PDN014:     -2    0   -2  4.22796507E-03 -3.281E-05 -1.312E-03
:PDN015:      0    0   -4  8.63837110E-04 -2.261E-05 -9.045E-04

:ENE  : ********** TOTAL ENERGY IN Ry =       -31821.91742222

 Flat Integration
 New Mode for Coulomb Integral
 Consistent 3/8+Simpson combinations
 Extension of core to zero
 LDM version in phi
 Fifth-order quadrature in outwin


            ---------
:ITE002:  2. ITERATION
            ---------

:NATO :    2 INDEPENDENT AND    4 TOTAL ATOMS IN UNITCELL
       SUBSTANCE: Title                                                       

       LATTICE                      = H   
:POT  : POTENTIAL OPTION EX_PBE EC_PBE VX_PBE VC_PBE
:LAT  : LATTICE CONSTANTS=  8.00498  8.00498 11.22975
:VOL  : UNIT CELL VOLUME =     623.19081
       MODE OF CALCULATION IS       = RELA
       SPINPOLARIZED CALCULATION
:IFFT  : FFT-parameters:   64   64   90 Factor: 2.00
       ATOMNUMBER=  1 Mn         VCOUL-ZERO =  0.43202E+00
:EFG001:                        EFG         =    -0.03765   *10**21  V / m**2
                               V20  TOT/SRF=    -0.03260     0.04595
                               V22  TOT/SRF=     0.00000     0.00000
                               V22M TOT/SRF=     0.00000     0.00000
                               V21  TOT/SRF=     0.00000     0.00000
                               V21M TOT/SRF=     0.00000     0.00000

              0.01882    0.00000    0.00000        0.01882    0.00000    0.00000
              0.00000    0.01882    0.00000        0.00000    0.01882    0.00000
              0.00000    0.00000   -0.03765        0.00000    0.00000   -0.03765

         MAIN DIRECTIONS OF THE EFG   1.0000  0.0000  0.0000
                                      0.0000  1.0000  0.0000
                                      0.0000  0.0000  1.0000
:ANG001:  ANGLE WITH OLD X-AXIS =         0.0

:ETA001:                         ASYMM. ETA =     0.00000


       ATOMNUMBER=  2 Te         VCOUL-ZERO =  0.34282E+00
:EFG002:                        EFG         =    -0.21670   *10**21  V / m**2
                               V20  TOT/SRF=    -0.18767    -0.02883
                               V22  TOT/SRF=     0.00000     0.00000
                               V22M TOT/SRF=     0.00000     0.00000
                               V21  TOT/SRF=     0.00000     0.00000
                               V21M TOT/SRF=     0.00000     0.00000

              0.10835    0.00000    0.00000        0.10835    0.00000    0.00000
              0.00000    0.10835    0.00000        0.00000    0.10835    0.00000
              0.00000    0.00000   -0.21670        0.00000    0.00000   -0.21670

         MAIN DIRECTIONS OF THE EFG   1.0000  0.0000  0.0000
                                      0.0000  1.0000  0.0000
                                      0.0000  0.0000  1.0000
:ANG002:  ANGLE WITH OLD X-AXIS =         0.0

:ETA002:                         ASYMM. ETA =     0.00000


:FIT001: LUSE= 13 SIGMA OF V-XC FIT FOR ATOM  1  0.3646439E-02
:FIT001: LUSE= 13 SIGMA OF V-XC FIT FOR ATOM  1  0.4607650E-02
:FIT002: LUSE= 13 SIGMA OF V-XC FIT FOR ATOM  2  0.4149765E-03
:FIT002: LUSE= 13 SIGMA OF V-XC FIT FOR ATOM  2  0.4218359E-03
:DEN  : DENSITY INTEGRAL  =        -12620.30830026   (Ry)
       ELS_POTENTIAL_AT Z=0 and Z=0.5:   0.05370   0.05370
       ELS_POTENTIAL_AT Y=0 and Y=0.5:   0.00000   0.00000
:VZERO:v0,v0c,v0x  -0.68773   0.05370  -0.74144 v5,v5c,v5x  -0.68773   0.05370  -0.74144
:VZERY:v0,v0c,v0x  -0.77069   0.00000  -0.77069 v5,v5c,v5x  -0.77069   0.00000  -0.77069
:VZERX:v0,v0c,v0x  -1.31896  -0.44560  -0.87336 v5,v5c,v5x  -0.29099   0.44278  -0.73377
:LMAX-WF:   10   Non-Spherical LMAX:   4

          ATOMIC SPHERE DEPENDENT PARAMETERS FOR ATOM  Mn        
:e__0001: OVERALL ENERGY PARAMETER IS    0.2983
          OVERALL BASIS SET ON ATOM IS LAPW
:E0_0001: E( 0)=    0.2983
             APW+lo
:E0_0001: E( 0)=   -5.5479   E(BOTTOM)=   -5.559   E(TOP)=   -5.537  2  3   152
             LOCAL ORBITAL
:E1_0001: E( 1)=    0.2983
             APW+lo
:E1_0001: E( 1)=   -3.2555   E(BOTTOM)=   -3.289   E(TOP)=   -3.222  1  2   149
             LOCAL ORBITAL
:E2_0001: E( 2)=    0.2231   E(BOTTOM)=    0.007   E(TOP)=    0.439  0  1   128
             APW+lo

          ATOMIC SPHERE DEPENDENT PARAMETERS FOR ATOM  Te        
:e__0002: OVERALL ENERGY PARAMETER IS    0.2983
          OVERALL BASIS SET ON ATOM IS LAPW
:E1_0002: E( 1)=    0.2983
             APW+lo
:E1_0002: E( 1)=   -7.5197   E(BOTTOM)=   -7.524   E(TOP)=   -7.516  2  3   128
             LOCAL ORBITAL
:E2_0002: E( 2)=    0.2983
             APW+lo
:E2_0002: E( 2)=   -2.1979   E(BOTTOM)=   -2.254   E(TOP)=   -2.142  1  2   150
             LOCAL ORBITAL
:E0_0002: E( 0)=    0.6983
             APW+lo
:E0_0002: E( 0)=   -0.0830   E(BOTTOM)=   -1.101   E(TOP)=    0.935  4  5   206
             LOCAL ORBITAL

       K=   0.00000   0.00000   0.00000            1
:RKM  : MATRIX SIZE   749LOs:  62  RKM= 9.99  WEIGHT= 1.00  PGR:    
       EIGENVALUES ARE:
:EIG00001:      -7.5193709   -7.5193709   -7.5193681   -7.5193681   -7.5182852
:EIG00006:      -7.5182820   -5.5461047   -5.5457572   -3.2521541   -3.2481020
:EIG00011:      -3.2481020   -3.2478813   -3.2477102   -3.2477102   -2.1864869
:EIG00016:      -2.1864869   -2.1864837   -2.1864837   -2.1859462   -2.1859462
:EIG00021:      -2.1854729   -2.1854729   -2.1842724   -2.1842564   -0.4764927
:EIG00026:      -0.3299028    0.0228381    0.1288651    0.1288651    0.1753682
:EIG00031:       0.2202224    0.2202224    0.2389334    0.2389334    0.2744047
:EIG00036:       0.2744047    0.3463149    0.3784964    0.3784964    0.4960060
:EIG00041:       0.5095626    0.5095626    0.6086402    0.6146581    0.8109562
:EIG00046:       0.8109562    0.9506626    0.9506626    1.0142214    1.0479008
 
:EIG00051:       1.0781213    1.0781213    1.0918060    1.0918060    1.1238054
:EIG00056:       1.1759933    1.2607319    1.7568952    1.7568952    1.7599390
:EIG00061:       1.7599390    1.7659477    1.7753129    1.7753129    1.9014258
:EIG00066:       1.9014258    1.9464380    1.9608883    1.9688869
       ********************************************************

:KPT   :      NUMBER OF K-POINTS:   120
:LMAX-WF:   10   Non-Spherical LMAX:   4

          ATOMIC SPHERE DEPENDENT PARAMETERS FOR ATOM  Mn        
:e__0001: OVERALL ENERGY PARAMETER IS    0.2983
          OVERALL BASIS SET ON ATOM IS LAPW
:E0_0001: E( 0)=    0.2983
             APW+lo
:E0_0001: E( 0)=   -5.1722   E(BOTTOM)=   -5.184   E(TOP)=   -5.160  2  3   196
             LOCAL ORBITAL
:E1_0001: E( 1)=    0.2983
             APW+lo
:E1_0001: E( 1)=   -2.8876   E(BOTTOM)=   -2.924   E(TOP)=   -2.851  1  2   190
             LOCAL ORBITAL
:E2_0001: E( 2)=    0.5592   E(BOTTOM)=    0.311   E(TOP)=    0.807  0  1   125
             APW+lo

          ATOMIC SPHERE DEPENDENT PARAMETERS FOR ATOM  Te        
:e__0002: OVERALL ENERGY PARAMETER IS    0.2983
          OVERALL BASIS SET ON ATOM IS LAPW
:E1_0002: E( 1)=    0.2983
             APW+lo
:E1_0002: E( 1)=   -7.5125   E(BOTTOM)=   -7.516   E(TOP)=   -7.509  3  3   131
             LOCAL ORBITAL
:E2_0002: E( 2)=    0.2983
             APW+lo
:E2_0002: E( 2)=   -2.1849   E(BOTTOM)=   -2.238   E(TOP)=   -2.132  1  2   155
             LOCAL ORBITAL
:E0_0002: E( 0)=    0.6983
             APW+lo
:E0_0002: E( 0)=   -0.0130   E(BOTTOM)=   -1.012   E(TOP)=    0.986  4  5   199
             LOCAL ORBITAL

       K=   0.00000   0.00000   0.00000            1
:RKM  : MATRIX SIZE   749LOs:  62  RKM= 9.99  WEIGHT= 1.00  PGR:    
       EIGENVALUES ARE:
:EIG00001:      -7.5122593   -7.5122593   -7.5122564   -7.5122564   -7.5111554
:EIG00006:      -7.5111524   -5.1702226   -5.1698126   -2.8843635   -2.8793037
:EIG00011:      -2.8793037   -2.8791226   -2.8788032   -2.8788032   -2.1743107
:EIG00016:      -2.1743107   -2.1743069   -2.1743069   -2.1737255   -2.1737255
:EIG00021:      -2.1733037   -2.1733037   -2.1720807   -2.1720699   -0.3888921
:EIG00026:      -0.2476142    0.1360943    0.3187734    0.3187734    0.4475753
:EIG00031:       0.4760214    0.4760214    0.5102670    0.5102670    0.5465250
:EIG00036:       0.5465250    0.5876894    0.6095000    0.6095000    0.6833517
:EIG00041:       0.6959649    0.7524348    0.7524740    0.7524740    0.9082246
:EIG00046:       0.9082246    1.0803013    1.0803013    1.1082806    1.1638260
 
:EIG00051:       1.2208899    1.2208899    1.2230026    1.2230026    1.2664613
:EIG00056:       1.2809214    1.3560859    1.8427687    1.8495637    1.8495637
:EIG00061:       1.8510076    1.8510076    1.8771132    1.8771132
       ********************************************************

:KPT   :      NUMBER OF K-POINTS:   120
:GAP (global)   :    0.0    Ry =     0.0   eV (metal)
:GAP (this spin):    0.0    Ry =     0.0   eV (metal)
         Bandranges (emin - emax) and occupancy:
:BAN00032:  32    0.182334    0.221481  1.00000000
:BAN00033:  33    0.205139    0.238933  1.00000000
:BAN00034:  34    0.225141    0.252486  1.00000000
:BAN00035:  35    0.242731    0.274405  1.00000000
:BAN00036:  36    0.246208    0.274515  1.00000000
:BAN00037:  37    0.259950    0.346315  1.00000000
:BAN00038:  38    0.264131    0.407467  1.00000000
:BAN00039:  39    0.277998    0.456015  1.00000000
:BAN00040:  40    0.298220    0.496006  1.00000000
:BAN00041:  41    0.367556    0.526134  0.98191845
:BAN00042:  42    0.387068    0.543374  0.53824030
:BAN00043:  43    0.566649    0.756688  0.00000000
:BAN00044:  44    0.614658    0.833428  0.00000000
:BAN00045:  45    0.715978    0.936533  0.00000000
:BAN00046:  46    0.774778    0.960062  0.00000000
:BAN00047:  47    0.819260    1.105136  0.00000000
        Energy to separate low and high energystates:   -0.04558


:NOE  : NUMBER OF ELECTRONS          =  74.000

:FER  : F E R M I - ENERGY(TETRAH.M.)=   0.4996604009
:GMA  : POTENTIAL AND CHARGE CUT-OFF  12.00 Ry**.5




:POS001: ATOM   -1 X,Y,Z = 0.00000 0.00000 0.00000  MULT= 2  ZZ= 25.000  Mn        

       LMMAX  7
       LM=   0 0  2 0  4 0  4 3  6 0  6 3  6 6

:CHA001: TOTAL VALENCE CHARGE INSIDE SPHERE   1 =   8.9864    (RMT=  2.5000 )
:PCS001: PARTIAL CHARGES SPHERE =  1 S,P,D,F,PZ,PXY, D-Z2,D-XY,X2Y2,D-XZ,YZ 
:QTL001: 1.1861 3.1834 4.6039 0.0110 1.0618 2.1217 0.0000 0.9155 1.8431 1.8453 0.0000 0.0000
        Q-s-low E-s-low   Q-p-low E-p-low   Q-d-low E-d-low   Q-f-low E-f-low
:EPL001:  1.0201 -5.4425    3.0115 -3.2321    0.0183 -0.3831    0.0013 -0.5424
        Q-s-hi  E-s-hi    Q-p-hi  E-p-hi    Q-d-hi  E-d-hi    Q-f-hi  E-f-hi 
:EPH001:  0.1659  0.1538    0.1719  0.2565    4.5856  0.2522    0.0097  0.3082
:VZZ001: EFG INSIDE SPHERE   1 =     0.343754      UP TO R =   2.50000




:POS002: ATOM   -2 X,Y,Z = 0.33333 0.66667 0.75000  MULT= 2  ZZ= 52.000  Te        

       LMMAX  7
       LM=   0 0  2 0  3 3  4 0  5 3  6 0  6 6

:CHA002: TOTAL VALENCE CHARGE INSIDE SPHERE   2 =   9.9110    (RMT=  2.5000 )
:PCS002: PARTIAL CHARGES SPHERE =  2 S,P,D,F,PZ,PXY, D-Z2,D-XY,X2Y2,D-XZ,YZ 
:QTL002: 0.7350 4.1469 5.0181 0.0090 1.3995 2.7475 0.0000 1.0007 2.0068 2.0106 0.0000 0.0000
        Q-s-low E-s-low   Q-p-low E-p-low   Q-d-low E-d-low   Q-f-low E-f-low
:EPL002:  0.6617 -0.3738    3.0027 -7.5119    4.9803 -2.1856    0.0003 -0.7389
        Q-s-hi  E-s-hi    Q-p-hi  E-p-hi    Q-d-hi  E-d-hi    Q-f-hi  E-f-hi 
:EPH002:  0.0733  0.2938    1.1443  0.2537    0.0378  0.2671    0.0087  0.2685
:VZZ002: EFG INSIDE SPHERE   2 =    -7.746039      UP TO R =   2.50000

:CHA  : TOTAL VALENCE CHARGE INSIDE UNIT CELL =      41.520159

:SUM  : SUM OF EIGENVALUES =         -94.516595818

:GAP (global)   :    0.0    Ry =     0.0   eV (metal)
:GAP (this spin):    0.0    Ry =     0.0   eV (metal)
         Bandranges (emin - emax) and occupancy:
:BAN00023:  23   -2.172082   -2.171979  1.00000000
:BAN00024:  24   -2.172076   -2.171979  1.00000000
:BAN00025:  25   -0.388892   -0.269162  1.00000000
:BAN00026:  26   -0.320670   -0.245499  1.00000000
:BAN00027:  27    0.118966    0.287745  1.00000000
:BAN00028:  28    0.142564    0.351449  1.00000000
:BAN00029:  29    0.202887    0.360521  1.00000000
:BAN00030:  30    0.222084    0.449853  1.00000000
:BAN00031:  31    0.319633    0.476021  1.00000000
:BAN00032:  32    0.331373    0.476021  1.00000000
:BAN00033:  33    0.442405    0.539706  0.47984124
:BAN00034:  34    0.510267    0.561844  0.00000000
:BAN00035:  35    0.517978    0.573268  0.00000000
:BAN00036:  36    0.546525    0.585450  0.00000000
:BAN00037:  37    0.551886    0.603143  0.00000000
:BAN00038:  38    0.551886    0.621472  0.00000000
        Energy to separate low and high energystates:    0.06897


:NOE  : NUMBER OF ELECTRONS          =  74.000

:FER  : F E R M I - ENERGY(TETRAH.M.)=   0.4996604009
:GMA  : POTENTIAL AND CHARGE CUT-OFF  12.00 Ry**.5




:POS001: ATOM   -1 X,Y,Z = 0.00000 0.00000 0.00000  MULT= 2  ZZ= 25.000  Mn        

       LMMAX  7
       LM=   0 0  2 0  4 0  4 3  6 0  6 3  6 6

:CHA001: TOTAL VALENCE CHARGE INSIDE SPHERE   1 =   4.9171    (RMT=  2.5000 )
:PCS001: PARTIAL CHARGES SPHERE =  1 S,P,D,F,PZ,PXY, D-Z2,D-XY,X2Y2,D-XZ,YZ 
:QTL001: 1.1398 3.1326 0.6361 0.0072 1.0516 2.0810 0.0000 0.1868 0.1911 0.2581 0.0000 0.0000
        Q-s-low E-s-low   Q-p-low E-p-low   Q-d-low E-d-low   Q-f-low E-f-low
:EPL001:  1.0173 -5.0854    3.0089 -2.8662    0.0125 -0.3071    0.0012 -0.4537
        Q-s-hi  E-s-hi    Q-p-hi  E-p-hi    Q-d-hi  E-d-hi    Q-f-hi  E-f-hi 
:EPH001:  0.1226  0.2097    0.1237  0.2969    0.6236  0.3822    0.0060  0.3350
:VZZ001: EFG INSIDE SPHERE   1 =    -3.248505      UP TO R =   2.50000




:POS002: ATOM   -2 X,Y,Z = 0.33333 0.66667 0.75000  MULT= 2  ZZ= 52.000  Te        

       LMMAX  7
       LM=   0 0  2 0  3 3  4 0  5 3  6 0  6 6

:CHA002: TOTAL VALENCE CHARGE INSIDE SPHERE   2 =   9.7349    (RMT=  2.5000 )
:PCS002: PARTIAL CHARGES SPHERE =  2 S,P,D,F,PZ,PXY, D-Z2,D-XY,X2Y2,D-XZ,YZ 
:QTL002: 0.7052 4.0238 5.0020 0.0031 1.3423 2.6816 0.0000 1.0006 2.0031 1.9983 0.0000 0.0000
        Q-s-low E-s-low   Q-p-low E-p-low   Q-d-low E-d-low   Q-f-low E-f-low
:EPL002:  0.6765 -0.2881    3.0026 -7.5050    4.9819 -2.1734    0.0002 -0.7344
        Q-s-hi  E-s-hi    Q-p-hi  E-p-hi    Q-d-hi  E-d-hi    Q-f-hi  E-f-hi 
:EPH002:  0.0287  0.2372    1.0213  0.2985    0.0201  0.3559    0.0029  0.3691
:VZZ002: EFG INSIDE SPHERE   2 =    -1.206313      UP TO R =   2.50000

:CHA  : TOTAL VALENCE CHARGE INSIDE UNIT CELL =      32.479841

:SUM  : SUM OF EIGENVALUES =         -93.013710239


        1.ATOM      Mn                    4 CORE STATES
:1S 001: 1S                -471.499618191 Ry
:2S 001: 2S                 -53.763792443 Ry
:2PP001: 2P*                -45.897729867 Ry
:2P 001: 2P                 -45.132633495 Ry

        2.ATOM      Te                   10 CORE STATES
:1S 002: 1S               -2322.173765041 Ry
:2S 002: 2S                -355.234249313 Ry
:2PP002: 2P*               -332.759227910 Ry
:2P 002: 2P                -312.584437699 Ry
:3S 002: 3S                 -69.984908979 Ry
:3PP002: 3P*                -60.747056524 Ry
:3P 002: 3P                 -56.986930666 Ry
:3DD002: 3D*                -40.698249260 Ry
:3D 002: 3D                 -39.912054243 Ry
:4S 002: 4S                 -11.190725741 Ry

        1.ATOM      Mn                    4 CORE STATES
:1S 001: 1S                -471.500467171 Ry
:2S 001: 2S                 -53.612978626 Ry
:2PP001: 2P*                -45.785121744 Ry
:2P 001: 2P                 -45.016917930 Ry

        2.ATOM      Te                   10 CORE STATES
:1S 002: 1S               -2322.170488867 Ry
:2S 002: 2S                -355.232787778 Ry
:2PP002: 2P*               -332.756253310 Ry
:2P 002: 2P                -312.581686540 Ry
:3S 002: 3S                 -69.981985968 Ry
:3PP002: 3P*                -60.743707817 Ry
:3P 002: 3P                 -56.983610925 Ry
:3DD002: 3D*                -40.695139668 Ry
:3D 002: 3D                 -39.908919455 Ry
:4S 002: 4S                 -11.183680851 Ry
:CINT001 Core Integral Atom   1 Up    5.000000 Dn   5.000000 Total  10.000000
:CINT002 Core Integral Atom   2 Up   14.999983 Dn  14.999984 Total  29.999967

       DENSITY AT NUCLEUS
        JATOM        VALENCE       SEMI-CORE          CORE           TOTAL
:RTO001:   1      163.065453        0.000000    13171.090205    13334.155658
:RTO002:   2      160.655700        0.000000   322100.885761   322261.541460

       HYPERFINE FIELDS FOR THOMSON RADIUS
:HFF001:          750.248           0.000        -998.683        -248.435 (KGAUSS)
:HFF002:          673.989           0.000          27.851         701.840 (KGAUSS)
     
       CHARGES OF NEW CHARGE DENSITY
:NTO   : INTERSTITIAL     UP =     3.725426 DN =     3.175840 TOT =     6.901266
:NPC   : INTERSTITIAL     UP =     9.034331 DN =     6.973952 TOT =    16.008282
:NTO001: CHARGE SPHERE  1 UP =    13.986394 DN =     9.917144 TOT =    23.903538
:NTO002: CHARGE SPHERE  2 UP =    24.910954 DN =    24.734840 TOT =    49.645794

:NEC01: NUCLEAR AND ELECTRONIC CHARGE    154.00000   153.99993
     
       CHARGES OF OLD CHARGE DENSITY
:OTO   : INTERSTITIAL     UP =     4.509563 DN =     2.404960 TOT =     6.914523
:OPC   : INTERSTITIAL     UP =    12.891773 DN =     6.327409 TOT =    19.219182
:OTO001: CHARGE SPHERE  1 UP =    14.359731 DN =     9.431190 TOT =    23.790921
:OTO002: CHARGE SPHERE  2 UP =    25.354382 DN =    24.397436 TOT =    49.751817

:NEC02: NUCLEAR AND ELECTRONIC CHARGE    154.00000   154.00000
     
       CONVERGENCE TEST
:DTO001: DIFFERENCE SPHERE  1 UP =  0.3071654 DN =  0.4309370 TOT =  0.7381024
:DTO002: DIFFERENCE SPHERE  2 UP =  0.2503590 DN =  0.1809066 TOT =  0.4312656

:DIS  :  CHARGE DISTANCE       ( 0.4309370 for atom    1 spin 2)      1.1693680
 
******************************************************
* MULTISECANT MIXING VER9 RELEASE 9.4.1              *
* Slow Mode, cautious                                *
* Fixed density scale                                *
* Regularization       1.000E-04                     *
* Step Trust Radius    0.75000                       *
* Trust Upper Limit    2.000E+00                     *
* Max Number of Memory Steps   12                    *
******************************************************
 
:PWTMP   3.6139E+02  5.0000E+02  6.2319E+02
:PLANE:  PW TOTAL      6.1067 DISTAN   2.33E+00  3.82E+01 %
:CHARG:  CLM/ATOM    400.3773 DISTAN   4.42E-01  1.11E-01 %
INFO: Reducing dbase  1.00000E-02 1.16937E+00 9.24750E-03
 
Step History
        DMIX         DMIXT        Red     Pred      Trust     Lambda    MagRel    MagAbs     Beta
  1   3.5000E-02   3.5000E-02 -1.00E+00  1.00E+00 -1.00E+01  1.00E+00  3.50E-02  3.50E-02  1.00E+00
  2   2.5000E-02   2.5000E-02 -1.00E+00  1.00E+00 -1.00E+01  1.00E+00  2.50E-02  3.76E-02  1.00E+00
:JACOBIANS    1.789E-01   4.531E-02
  
:TRUST:  Step 5.49E-02  Charge 5.00E-02 (e) CTO  2.50E-01 (e) PW  3.50E-01 (e)
:DIRM :  MEMORY  1/12 SCALE   1.000
:MIX  :   PRATT  REGULARIZATION:  1.00E-04 GREED: 0.05492  Expand 2.20  0.0549 PW             
     
       CHARGES OF MIXED CHARGE DENSITY
:CTO   : INTERSTITIAL     UP =     4.409051 DN =     2.502203 TOT =     6.911254
:CPC   : INTERSTITIAL     UP =    12.400864 DN =     6.409384 TOT =    18.810248
:CTO001: CHARGE SPHERE  1 UP =    14.313062 DN =     9.494585 TOT =    23.807647
:CTO002: CHARGE SPHERE  2 UP =    25.297343 DN =    24.439383 TOT =    49.736726

       SPIN MAGNETIC MOMENTS OF MIXED CHARGE DENSITY
:MMINT:  MAGNETIC MOMENT IN INTERSTITIAL  =    1.90685
:MMI001: MAGNETIC MOMENT IN SPHERE   1    =    4.81848
:MMI002: MAGNETIC MOMENT IN SPHERE   2    =    0.85796
:MMTOT:  SPIN MAGNETIC MOMENT IN CELL     =   13.25972

:NEC03: NUCLEAR AND ELECTRONIC CHARGE    154.00000   154.00000

PW CHANGE     H    K    L      Current       Change    Residue
:PUP001:      0    0    0  2.69739455E-02 -9.490E-04 -7.448E-03
:PUP003:     -1    0    0  1.09157965E-03  2.223E-04  1.756E-03
:PUP004:     -1    0   -1  7.05996153E-02 -3.482E-03 -2.743E-02
:PUP005:      0    0   -2 -5.86398986E-03  3.568E-04  2.846E-03
:PUP006:     -1    0   -2  4.24422422E-02 -2.997E-03 -2.361E-02
:PUP007:     -2    1    0  2.41936975E-02 -1.906E-03 -1.500E-02
:PUP010:     -2    0    0  3.26265374E-04 -1.661E-04 -1.297E-03
:PUP011:     -2    0   -1 -1.28663980E-02  1.624E-03  1.280E-02
:PUP012:     -1    0   -3 -1.26558605E-02  1.515E-03  1.203E-02
:PUP013:     -2    1   -2 -6.38317479E-03  6.942E-04  5.537E-03
:PUP014:     -2    0   -2  8.85671320E-03 -1.272E-03 -1.004E-02
:PUP015:      0    0   -4  1.59563724E-03 -3.143E-04 -2.491E-03
  
:PDN001:      0    0    0  1.42999333E-02  2.876E-04  2.275E-03
:PDN003:     -1    0    0 -7.26927808E-03  3.488E-04  2.584E-03
:PDN004:     -1    0   -1  4.34603506E-02 -8.050E-05 -5.179E-04
:PDN005:      0    0   -2 -6.03476164E-03  5.552E-05  4.044E-04
:PDN006:     -1    0   -2  1.77017997E-02 -4.785E-04 -3.820E-03
:PDN007:     -2    1    0  1.19168498E-02 -3.620E-04 -2.882E-03
:PDN010:     -2    0    0 -1.70163382E-03  2.063E-04  1.602E-03
:PDN011:     -2    0   -1 -7.67580038E-03  1.002E-03  7.900E-03
:PDN012:     -1    0   -3 -7.75445899E-03  7.501E-04  5.935E-03
:PDN013:     -2    1   -2 -6.47767307E-03  8.857E-04  6.979E-03
:PDN014:     -2    0   -2  4.06528417E-03 -1.627E-04 -1.303E-03
:PDN015:      0    0   -4  7.51707139E-04 -1.121E-04 -8.875E-04

:ENE  : ********** TOTAL ENERGY IN Ry =       -31821.91996552

 Flat Integration
 New Mode for Coulomb Integral
 Consistent 3/8+Simpson combinations
 Extension of core to zero
 LDM version in phi
 Fifth-order quadrature in outwin


            ---------
:ITE003:  3. ITERATION
            ---------

:NATO :    2 INDEPENDENT AND    4 TOTAL ATOMS IN UNITCELL
       SUBSTANCE: Title                                                       

       LATTICE                      = H   
:POT  : POTENTIAL OPTION EX_PBE EC_PBE VX_PBE VC_PBE
:LAT  : LATTICE CONSTANTS=  8.00498  8.00498 11.22975
:VOL  : UNIT CELL VOLUME =     623.19081
       MODE OF CALCULATION IS       = RELA
       SPINPOLARIZED CALCULATION
:IFFT  : FFT-parameters:   64   64   90 Factor: 2.00
       ATOMNUMBER=  1 Mn         VCOUL-ZERO =  0.43655E+00
:EFG001:                        EFG         =    -0.41731   *10**21  V / m**2
                               V20  TOT/SRF=    -0.36140     0.03194
                               V22  TOT/SRF=     0.00000     0.00000
                               V22M TOT/SRF=     0.00000     0.00000
                               V21  TOT/SRF=     0.00000     0.00000
                               V21M TOT/SRF=     0.00000     0.00000

              0.20866    0.00000    0.00000        0.20866    0.00000    0.00000
              0.00000    0.20866    0.00000        0.00000    0.20866    0.00000
              0.00000    0.00000   -0.41731        0.00000    0.00000   -0.41731

         MAIN DIRECTIONS OF THE EFG   1.0000  0.0000  0.0000
                                      0.0000  1.0000  0.0000
                                      0.0000  0.0000  1.0000
:ANG001:  ANGLE WITH OLD X-AXIS =         0.0

:ETA001:                         ASYMM. ETA =     0.00000


       ATOMNUMBER=  2 Te         VCOUL-ZERO =  0.33942E+00
:EFG002:                        EFG         =    -1.18845   *10**21  V / m**2
                               V20  TOT/SRF=    -1.02923    -0.02478
                               V22  TOT/SRF=     0.00000     0.00000
                               V22M TOT/SRF=     0.00000     0.00000
                               V21  TOT/SRF=     0.00000     0.00000
                               V21M TOT/SRF=     0.00000     0.00000

              0.59422    0.00000    0.00000        0.59422    0.00000    0.00000
              0.00000    0.59422    0.00000        0.00000    0.59422    0.00000
              0.00000    0.00000   -1.18845        0.00000    0.00000   -1.18845

         MAIN DIRECTIONS OF THE EFG   1.0000  0.0000  0.0000
                                      0.0000  1.0000  0.0000
                                      0.0000  0.0000  1.0000
:ANG002:  ANGLE WITH OLD X-AXIS =         0.0

:ETA002:                         ASYMM. ETA =     0.00000


:FIT001: LUSE= 13 SIGMA OF V-XC FIT FOR ATOM  1  0.3975138E-02
:FIT001: LUSE= 13 SIGMA OF V-XC FIT FOR ATOM  1  0.6288432E-02
:FIT002: LUSE= 13 SIGMA OF V-XC FIT FOR ATOM  2  0.3549255E-03
:FIT002: LUSE= 13 SIGMA OF V-XC FIT FOR ATOM  2  0.4000273E-03
:DEN  : DENSITY INTEGRAL  =        -12619.53765763   (Ry)
       ELS_POTENTIAL_AT Z=0 and Z=0.5:   0.05599   0.05599
       ELS_POTENTIAL_AT Y=0 and Y=0.5:   0.00000   0.00000
:VZERO:v0,v0c,v0x  -0.68002   0.05599  -0.73601 v5,v5c,v5x  -0.68002   0.05599  -0.73601
:VZERY:v0,v0c,v0x  -0.76527   0.00000  -0.76527 v5,v5c,v5x  -0.76527   0.00000  -0.76527
:VZERX:v0,v0c,v0x  -1.28827  -0.42159  -0.86668 v5,v5c,v5x  -0.30377   0.42099  -0.72477
:LMAX-WF:   10   Non-Spherical LMAX:   4

          ATOMIC SPHERE DEPENDENT PARAMETERS FOR ATOM  Mn        
:e__0001: OVERALL ENERGY PARAMETER IS    0.2992
          OVERALL BASIS SET ON ATOM IS LAPW
:E0_0001: E( 0)=    0.2992
             APW+lo
:E0_0001: E( 0)=   -5.5207   E(BOTTOM)=   -5.532   E(TOP)=   -5.509  2  3   156
             LOCAL ORBITAL
:E1_0001: E( 1)=    0.2992
             APW+lo
:E1_0001: E( 1)=   -3.2292   E(BOTTOM)=   -3.263   E(TOP)=   -3.196  1  2   158
             LOCAL ORBITAL
:E2_0001: E( 2)=    0.2458   E(BOTTOM)=    0.027   E(TOP)=    0.465  0  1   123
             APW+lo

          ATOMIC SPHERE DEPENDENT PARAMETERS FOR ATOM  Te        
:e__0002: OVERALL ENERGY PARAMETER IS    0.2992
          OVERALL BASIS SET ON ATOM IS LAPW
:E1_0002: E( 1)=    0.2992
             APW+lo
:E1_0002: E( 1)=   -7.5356   E(BOTTOM)=   -7.540   E(TOP)=   -7.532  3  3   129
             LOCAL ORBITAL
:E2_0002: E( 2)=    0.2992
             APW+lo
:E2_0002: E( 2)=   -2.2120   E(BOTTOM)=   -2.267   E(TOP)=   -2.157  1  2   143
             LOCAL ORBITAL
:E0_0002: E( 0)=    0.6992
             APW+lo
:E0_0002: E( 0)=   -0.0882   E(BOTTOM)=   -1.104   E(TOP)=    0.928  4  5   202
             LOCAL ORBITAL

       K=   0.00000   0.00000   0.00000            1
:RKM  : MATRIX SIZE   749LOs:  62  RKM= 9.99  WEIGHT= 1.00  PGR:    
       EIGENVALUES ARE:
:EIG00001:      -7.5352360   -7.5352360   -7.5352333   -7.5352333   -7.5343226
:EIG00006:      -7.5343194   -5.5187947   -5.5184438   -3.2239313   -3.2226687
:EIG00011:      -3.2226687   -3.2222702   -3.2222702   -3.2196000   -2.2005659
:EIG00016:      -2.2005659   -2.2005635   -2.2005635   -2.2002068   -2.2002068
:EIG00021:      -2.1997427   -2.1997427   -2.1986700   -2.1986554   -0.4774706
:EIG00026:      -0.3319143    0.0249621    0.1415759    0.1415759    0.1974890
:EIG00031:       0.2398935    0.2398935    0.2588804    0.2588804    0.2975700
:EIG00036:       0.2975700    0.3703061    0.3794346    0.3794346    0.4936327
:EIG00041:       0.5192553    0.5192553    0.6123140    0.6199480    0.8128126
:EIG00046:       0.8128126    0.9550698    0.9550698    1.0189561    1.0514267
 
:EIG00051:       1.0844156    1.0844156    1.0942249    1.0942249    1.1292922
:EIG00056:       1.1775126    1.2610984    1.7560939    1.7560939    1.7593656
:EIG00061:       1.7593656    1.7648261    1.7786001    1.7786001    1.9039156
:EIG00066:       1.9039156    1.9466399    1.9669365    1.9689520
       ********************************************************

:KPT   :      NUMBER OF K-POINTS:   120
:LMAX-WF:   10   Non-Spherical LMAX:   4

          ATOMIC SPHERE DEPENDENT PARAMETERS FOR ATOM  Mn        
:e__0001: OVERALL ENERGY PARAMETER IS    0.2992
          OVERALL BASIS SET ON ATOM IS LAPW
:E0_0001: E( 0)=    0.2992
             APW+lo
:E0_0001: E( 0)=   -5.1528   E(BOTTOM)=   -5.165   E(TOP)=   -5.140  2  3   197
             LOCAL ORBITAL
:E1_0001: E( 1)=    0.2992
             APW+lo
:E1_0001: E( 1)=   -2.8691   E(BOTTOM)=   -2.906   E(TOP)=   -2.832  1  2   187
             LOCAL ORBITAL
:E2_0001: E( 2)=    0.5744   E(BOTTOM)=    0.324   E(TOP)=    0.825  0  1   125
             APW+lo

          ATOMIC SPHERE DEPENDENT PARAMETERS FOR ATOM  Te        
:e__0002: OVERALL ENERGY PARAMETER IS    0.2992
          OVERALL BASIS SET ON ATOM IS LAPW
:E1_0002: E( 1)=    0.2992
             APW+lo
:E1_0002: E( 1)=   -7.5293   E(BOTTOM)=   -7.533   E(TOP)=   -7.525  3  3   133
             LOCAL ORBITAL
:E2_0002: E( 2)=    0.2992
             APW+lo
:E2_0002: E( 2)=   -2.2004   E(BOTTOM)=   -2.253   E(TOP)=   -2.148  1  2   147
             LOCAL ORBITAL
:E0_0002: E( 0)=    0.6992
             APW+lo
:E0_0002: E( 0)=   -0.0254   E(BOTTOM)=   -1.024   E(TOP)=    0.974  4  5   204
             LOCAL ORBITAL

       K=   0.00000   0.00000   0.00000            1
:RKM  : MATRIX SIZE   749LOs:  62  RKM= 9.99  WEIGHT= 1.00  PGR:    
       EIGENVALUES ARE:
:EIG00001:      -7.5289788   -7.5289788   -7.5289760   -7.5289760   -7.5280015
:EIG00006:      -7.5279985   -5.1507441   -5.1503296   -2.8648008   -2.8612025
:EIG00011:      -2.8612025   -2.8606927   -2.8606927   -2.8594849   -2.1897762
:EIG00016:      -2.1897762   -2.1897701   -2.1897701   -2.1893116   -2.1893116
:EIG00021:      -2.1888914   -2.1888914   -2.1877947   -2.1877853   -0.3985774
:EIG00026:      -0.2584125    0.1286672    0.3148500    0.3148500    0.4577159
:EIG00031:       0.4669102    0.4669102    0.5214441    0.5214441    0.5568431
:EIG00036:       0.5568431    0.5758260    0.6252630    0.6252630    0.6920119
:EIG00041:       0.6990640    0.7521175    0.7600597    0.7600597    0.9033815
:EIG00046:       0.9033815    1.0783145    1.0783145    1.1055264    1.1613837
 
:EIG00051:       1.2186169    1.2186169    1.2211049    1.2211049    1.2612809
:EIG00056:       1.2803440    1.3489431    1.8346794    1.8402048    1.8402048
:EIG00061:       1.8417688    1.8417688    1.8721915    1.8721915
       ********************************************************

:KPT   :      NUMBER OF K-POINTS:   120
:GAP (global)   :    0.0    Ry =     0.0   eV (metal)
:GAP (this spin):    0.0    Ry =     0.0   eV (metal)
         Bandranges (emin - emax) and occupancy:
:BAN00032:  32    0.195424    0.241206  1.00000000
:BAN00033:  33    0.217406    0.260482  1.00000000
:BAN00034:  34    0.245025    0.273160  1.00000000
:BAN00035:  35    0.263113    0.297570  1.00000000
:BAN00036:  36    0.267054    0.297570  1.00000000
:BAN00037:  37    0.280521    0.370306  1.00000000
:BAN00038:  38    0.284825    0.411804  1.00000000
:BAN00039:  39    0.299168    0.463533  1.00000000
:BAN00040:  40    0.316611    0.495997  1.00000000
:BAN00041:  41    0.381316    0.532566  0.98301862
:BAN00042:  42    0.399986    0.551433  0.55309533
:BAN00043:  43    0.575847    0.760343  0.00000000
:BAN00044:  44    0.619948    0.836660  0.00000000
:BAN00045:  45    0.721589    0.940243  0.00000000
:BAN00046:  46    0.777106    0.962073  0.00000000
:BAN00047:  47    0.823288    1.105766  0.00000000
        Energy to separate low and high energystates:   -0.03958


:NOE  : NUMBER OF ELECTRONS          =  74.000

:FER  : F E R M I - ENERGY(TETRAH.M.)=   0.5075966538
:GMA  : POTENTIAL AND CHARGE CUT-OFF  12.00 Ry**.5




:POS001: ATOM   -1 X,Y,Z = 0.00000 0.00000 0.00000  MULT= 2  ZZ= 25.000  Mn        

       LMMAX  7
       LM=   0 0  2 0  4 0  4 3  6 0  6 3  6 6

:CHA001: TOTAL VALENCE CHARGE INSIDE SPHERE   1 =   8.9583    (RMT=  2.5000 )
:PCS001: PARTIAL CHARGES SPHERE =  1 S,P,D,F,PZ,PXY, D-Z2,D-XY,X2Y2,D-XZ,YZ 
:QTL001: 1.1838 3.1810 4.5804 0.0111 1.0607 2.1203 0.0000 0.9102 1.8342 1.8359 0.0000 0.0000
        Q-s-low E-s-low   Q-p-low E-p-low   Q-d-low E-d-low   Q-f-low E-f-low
:EPL001:  1.0196 -5.4186    3.0111 -3.2062    0.0174 -0.3860    0.0013 -0.5423
        Q-s-hi  E-s-hi    Q-p-hi  E-p-hi    Q-d-hi  E-d-hi    Q-f-hi  E-f-hi 
:EPH001:  0.1642  0.1586    0.1699  0.2597    4.5630  0.2739    0.0098  0.3135
:VZZ001: EFG INSIDE SPHERE   1 =     0.343663      UP TO R =   2.50000




:POS002: ATOM   -2 X,Y,Z = 0.33333 0.66667 0.75000  MULT= 2  ZZ= 52.000  Te        

       LMMAX  7
       LM=   0 0  2 0  3 3  4 0  5 3  6 0  6 6

:CHA002: TOTAL VALENCE CHARGE INSIDE SPHERE   2 =   9.9321    (RMT=  2.5000 )
:PCS002: PARTIAL CHARGES SPHERE =  2 S,P,D,F,PZ,PXY, D-Z2,D-XY,X2Y2,D-XZ,YZ 
:QTL002: 0.7372 4.1640 5.0197 0.0093 1.4071 2.7569 0.0000 1.0010 2.0073 2.0115 0.0000 0.0000
        Q-s-low E-s-low   Q-p-low E-p-low   Q-d-low E-d-low   Q-f-low E-f-low
:EPL002:  0.6652 -0.3756    3.0026 -7.5279    4.9806 -2.1998    0.0002 -0.7728
        Q-s-hi  E-s-hi    Q-p-hi  E-p-hi    Q-d-hi  E-d-hi    Q-f-hi  E-f-hi 
:EPH002:  0.0720  0.3024    1.1614  0.2554    0.0391  0.2802    0.0091  0.2859
:VZZ002: EFG INSIDE SPHERE   2 =    -8.497172      UP TO R =   2.50000

:CHA  : TOTAL VALENCE CHARGE INSIDE UNIT CELL =      41.536114

:SUM  : SUM OF EIGENVALUES =         -94.317067536

:GAP (global)   :    0.0    Ry =     0.0   eV (metal)
:GAP (this spin):    0.0    Ry =     0.0   eV (metal)
         Bandranges (emin - emax) and occupancy:
:BAN00023:  23   -2.187796   -2.187693  1.00000000
:BAN00024:  24   -2.187792   -2.187693  1.00000000
:BAN00025:  25   -0.398577   -0.280150  1.00000000
:BAN00026:  26   -0.330761   -0.256392  1.00000000
:BAN00027:  27    0.113336    0.279960  1.00000000
:BAN00028:  28    0.136206    0.344070  1.00000000
:BAN00029:  29    0.195646    0.356602  1.00000000
:BAN00030:  30    0.216639    0.457716  1.00000000
:BAN00031:  31    0.313058    0.466910  1.00000000
:BAN00032:  32    0.323917    0.480914  1.00000000
:BAN00033:  33    0.449758    0.551612  0.46388605
:BAN00034:  34    0.521444    0.574260  0.00000000
:BAN00035:  35    0.529332    0.585722  0.00000000
:BAN00036:  36    0.556843    0.596837  0.00000000
:BAN00037:  37    0.564037    0.616984  0.00000000
:BAN00038:  38    0.564056    0.633972  0.00000000
        Energy to separate low and high energystates:    0.06334


:NOE  : NUMBER OF ELECTRONS          =  74.000

:FER  : F E R M I - ENERGY(TETRAH.M.)=   0.5075966538
:GMA  : POTENTIAL AND CHARGE CUT-OFF  12.00 Ry**.5




:POS001: ATOM   -1 X,Y,Z = 0.00000 0.00000 0.00000  MULT= 2  ZZ= 25.000  Mn        

       LMMAX  7
       LM=   0 0  2 0  4 0  4 3  6 0  6 3  6 6

:CHA001: TOTAL VALENCE CHARGE INSIDE SPHERE   1 =   4.8592    (RMT=  2.5000 )
:PCS001: PARTIAL CHARGES SPHERE =  1 S,P,D,F,PZ,PXY, D-Z2,D-XY,X2Y2,D-XZ,YZ 
:QTL001: 1.1377 3.1314 0.5811 0.0075 1.0505 2.0810 0.0000 0.1685 0.1763 0.2363 0.0000 0.0000
        Q-s-low E-s-low   Q-p-low E-p-low   Q-d-low E-d-low   Q-f-low E-f-low
:EPL001:  1.0167 -5.0689    3.0085 -2.8480    0.0121 -0.3188    0.0013 -0.4630
        Q-s-hi  E-s-hi    Q-p-hi  E-p-hi    Q-d-hi  E-d-hi    Q-f-hi  E-f-hi 
:EPH001:  0.1210  0.2065    0.1230  0.2918    0.5690  0.3820    0.0063  0.3320
:VZZ001: EFG INSIDE SPHERE   1 =    -2.853940      UP TO R =   2.50000




:POS002: ATOM   -2 X,Y,Z = 0.33333 0.66667 0.75000  MULT= 2  ZZ= 52.000  Te        

       LMMAX  7
       LM=   0 0  2 0  3 3  4 0  5 3  6 0  6 6

:CHA002: TOTAL VALENCE CHARGE INSIDE SPHERE   2 =   9.7721    (RMT=  2.5000 )
:PCS002: PARTIAL CHARGES SPHERE =  2 S,P,D,F,PZ,PXY, D-Z2,D-XY,X2Y2,D-XZ,YZ 
:QTL002: 0.7077 4.0585 5.0023 0.0030 1.3558 2.7027 0.0000 1.0007 2.0032 1.9984 0.0000 0.0000
        Q-s-low E-s-low   Q-p-low E-p-low   Q-d-low E-d-low   Q-f-low E-f-low
:EPL002:  0.6790 -0.2988    3.0025 -7.5219    4.9820 -2.1890    0.0002 -0.7721
        Q-s-hi  E-s-hi    Q-p-hi  E-p-hi    Q-d-hi  E-d-hi    Q-f-hi  E-f-hi 
:EPH002:  0.0287  0.2334    1.0560  0.2945    0.0203  0.3569    0.0028  0.3672
:VZZ002: EFG INSIDE SPHERE   2 =    -1.966702      UP TO R =   2.50000

:CHA  : TOTAL VALENCE CHARGE INSIDE UNIT CELL =      32.463886

:SUM  : SUM OF EIGENVALUES =         -93.176129096


        1.ATOM      Mn                    4 CORE STATES
:1S 001: 1S                -471.468764200 Ry
:2S 001: 2S                 -53.730634084 Ry
:2PP001: 2P*                -45.864849413 Ry
:2P 001: 2P                 -45.099731224 Ry

        2.ATOM      Te                   10 CORE STATES
:1S 002: 1S               -2322.206042566 Ry
:2S 002: 2S                -355.261297073 Ry
:2PP002: 2P*               -332.786928079 Ry
:2P 002: 2P                -312.611901944 Ry
:3S 002: 3S                 -70.007169017 Ry
:3PP002: 3P*                -60.769479591 Ry
:3P 002: 3P                 -57.009163052 Ry
:3DD002: 3D*                -40.720894366 Ry
:3D 002: 3D                 -39.934631658 Ry
:4S 002: 4S                 -11.207198989 Ry

        1.ATOM      Mn                    4 CORE STATES
:1S 001: 1S                -471.469626519 Ry
:2S 001: 2S                 -53.582733171 Ry
:2PP001: 2P*                -45.754421907 Ry
:2P 001: 2P                 -44.986255138 Ry

        2.ATOM      Te                   10 CORE STATES
:1S 002: 1S               -2322.203100867 Ry
:2S 002: 2S                -355.260021348 Ry
:2PP002: 2P*               -332.784293868 Ry
:2P 002: 2P                -312.609469594 Ry
:3S 002: 3S                 -70.004568238 Ry
:3PP002: 3P*                -60.766501685 Ry
:3P 002: 3P                 -57.006209826 Ry
:3DD002: 3D*                -40.718140378 Ry
:3D 002: 3D                 -39.931854822 Ry
:4S 002: 4S                 -11.200994988 Ry
:CINT001 Core Integral Atom   1 Up    5.000000 Dn   5.000000 Total  10.000000
:CINT002 Core Integral Atom   2 Up   14.999984 Dn  14.999984 Total  29.999968

       DENSITY AT NUCLEUS
        JATOM        VALENCE       SEMI-CORE          CORE           TOTAL
:RTO001:   1      162.828784        0.000000    13171.096812    13333.925596
:RTO002:   2      161.509383        0.000000   322102.159805   322263.669188

       HYPERFINE FIELDS FOR THOMSON RADIUS
:HFF001:          744.380           0.000        -980.269        -235.889 (KGAUSS)
:HFF002:          703.361           0.000          25.650         729.011 (KGAUSS)
     
       CHARGES OF NEW CHARGE DENSITY
:NTO   : INTERSTITIAL     UP =     3.755306 DN =     3.201292 TOT =     6.956598
:NPC   : INTERSTITIAL     UP =     9.093890 DN =     7.042468 TOT =    16.136358
:NTO001: CHARGE SPHERE  1 UP =    13.958285 DN =     9.859193 TOT =    23.817478
:NTO002: CHARGE SPHERE  2 UP =    24.932101 DN =    24.772088 TOT =    49.704188

:NEC01: NUCLEAR AND ELECTRONIC CHARGE    154.00000   153.99993
     
       CHARGES OF OLD CHARGE DENSITY
:OTO   : INTERSTITIAL     UP =     4.409051 DN =     2.502203 TOT =     6.911254
:OPC   : INTERSTITIAL     UP =    12.400864 DN =     6.409384 TOT =    18.810248
:OTO001: CHARGE SPHERE  1 UP =    14.313062 DN =     9.494585 TOT =    23.807647
:OTO002: CHARGE SPHERE  2 UP =    25.297343 DN =    24.439383 TOT =    49.736726

:NEC02: NUCLEAR AND ELECTRONIC CHARGE    154.00000   154.00000
     
       CONVERGENCE TEST
:DTO001: DIFFERENCE SPHERE  1 UP =  0.3212550 DN =  0.3200529 TOT =  0.6413080
:DTO002: DIFFERENCE SPHERE  2 UP =  0.2038982 DN =  0.1736772 TOT =  0.3775754

:DIS  :  CHARGE DISTANCE       ( 0.3212550 for atom    1 spin 1)      1.0188833
 
******************************************************
* MULTISECANT MIXING VER9 RELEASE 9.4.1              *
* Standard Mode with controls                        *
* Fixed density scale                                *
* Regularization       1.000E-04                     *
* Trust Upper Limit    5.000E+00                     *
* Max Number of Memory Steps    8                    *
******************************************************
 
:PWTMP   3.6139E+02  5.0000E+02  6.2319E+02
:PLANE:  PW TOTAL      5.8830 DISTAN   2.02E+00  3.43E+01 %
:CHARG:  CLM/ATOM    400.3649 DISTAN   3.79E-01  9.47E-02 %
INFO: Reducing dbase  2.50000E-02 1.01888E+00 2.47672E-02
 
Step History
        DMIX         DMIXT        Red     Pred      Trust     Lambda    MagRel    MagAbs     Beta
  1   3.5000E-02   3.5000E-02 -1.00E+00  1.00E+00 -1.00E+01  1.00E+00  3.50E-02  3.50E-02  1.00E+00
  2   2.5000E-02   2.5000E-02  9.74E-01  1.00E+00 -1.00E+01  1.00E+00  2.50E-02  3.76E-02  1.00E+00
  3   5.4918E-02   5.4918E-02 -1.00E+00  1.00E+00 -1.00E+01  1.00E+00  5.49E-02  8.04E-02  1.00E+00
:JACOBIANS    2.705E-01   6.715E-02
  
:NORMS:  1/Froebius, Min, Max, Used   0.7694E+00  0.3177E+00  0.7695E+00  0.7695E+00
:INFO :  Number of Memory Steps    2 Skipping    0
:INFO :  SLambda=    1.0458340  Max    1.0458340

Eigenvalues, unscaled except for SY+YY
   #     SY Real        SY Imag          SS             YY         SY+YY Real      SY+YY Imag
   1  -2.109424E-15   0.000000E+00   1.184032E+00   1.999728E+00   2.668538E-04   0.000000E+00
   2   1.329502E+00   0.000000E+00   0.000000E+00   2.717990E-04   3.390172E+00   0.000000E+00
 
:INFO :  Singular value  3.390E+00 Weight  1.000E+00 Projection  8.420E-01
:INFO :  Singular value  2.669E-04 Weight  6.404E-01 Projection -1.246E+01
:RANK :  ACTIVE   1.64/2  =  82.02 %
 
Increasing PW by   1.250
:BLIM :  VZERO Control Off
:TRUST:  Step 1.40E-01  Charge 3.50E-02 (e) CTO  2.50E-01 (e) PW  4.38E-01 (e)
:DTRUS:  Lambda    8.932E+00 Increment    7.276E-12 Iterations   126 DMIX    4.682E-02
:INFOA:  Angle SubSpace to MSR1      4.47
:DIRM :  MEMORY  2/8  SCALE   1.000 RED  0.86 PRED  1.00 NEXT  0.81 
:INFO :  Limited by Atoms F by Step T

:TRAVE:  Charge 5.24E-03 (e) CTO  1.03E-02 (e) PW  3.17E-01 (e)
:DIRP :  |MSR1|= 1.383E-01 |PRATT|= 1.010E+00 ANGLE=   3.2 DEGREES
:DIRQ :  |MSR1|= 1.095E-01 |PRATT|= 7.579E-01 ANGLE=   5.3 DEGREES
:DIRT :  |MSR1|= 1.764E-01 |PRATT|= 1.263E+00 ANGLE=   4.4 DEGREES
:MIX  :   MSE1   REGULARIZATION:  2.00E-04 GREED: 0.13729  LMStep 0.20  0.1397 Step           
     
       CHARGES OF MIXED CHARGE DENSITY
:CTO   : INTERSTITIAL     UP =     4.317980 DN =     2.603547 TOT =     6.921527
:CPC   : INTERSTITIAL     UP =    11.945493 DN =     6.524078 TOT =    18.469570
:CTO001: CHARGE SPHERE  1 UP =    14.260244 DN =     9.542167 TOT =    23.802411
:CTO002: CHARGE SPHERE  2 UP =    25.245938 DN =    24.490887 TOT =    49.736826

       SPIN MAGNETIC MOMENTS OF MIXED CHARGE DENSITY
:MMINT:  MAGNETIC MOMENT IN INTERSTITIAL  =    1.71443
:MMI001: MAGNETIC MOMENT IN SPHERE   1    =    4.71808
:MMI002: MAGNETIC MOMENT IN SPHERE   2    =    0.75505
:MMTOT:  SPIN MAGNETIC MOMENT IN CELL     =   12.66069

:NEC03: NUCLEAR AND ELECTRONIC CHARGE    154.00000   154.00000

PW CHANGE     H    K    L      Current       Change    Residue
:PUP001:      0    0    0  2.60971001E-02 -8.768E-04 -6.355E-03
:PUP003:     -1    0    0  1.21618564E-03  1.246E-04  1.375E-03
:PUP004:     -1    0   -1  6.74299035E-02 -3.170E-03 -2.358E-02
:PUP005:      0    0   -2 -5.56785668E-03  2.961E-04  2.483E-03
:PUP006:     -1    0   -2  3.96279419E-02 -2.814E-03 -2.046E-02
:PUP007:     -2    1    0  2.23768195E-02 -1.817E-03 -1.302E-02
:PUP010:     -2    0    0  1.37497524E-04 -1.888E-04 -1.157E-03
:PUP011:     -2    0   -1 -1.13779651E-02  1.488E-03  1.103E-02
:PUP012:     -1    0   -3 -1.13046604E-02  1.351E-03  1.055E-02
:PUP013:     -2    1   -2 -5.83507922E-03  5.481E-04  4.775E-03
:PUP014:     -2    0   -2  7.62280448E-03 -1.234E-03 -8.840E-03
:PUP015:      0    0   -4  1.30707957E-03 -2.886E-04 -2.184E-03
  
:PDN001:      0    0    0  1.46465964E-02  3.467E-04  2.138E-03
:PDN003:     -1    0    0 -7.03348294E-03  2.358E-04  1.653E-03
:PDN004:     -1    0   -1  4.36693982E-02  2.090E-04  3.793E-04
:PDN005:      0    0   -2 -6.00606047E-03  2.870E-05  2.229E-04
:PDN006:     -1    0   -2  1.74219451E-02 -2.799E-04 -3.120E-03
:PDN007:     -2    1    0  1.16661976E-02 -2.507E-04 -2.407E-03
:PDN010:     -2    0    0 -1.47459973E-03  2.270E-04  1.391E-03
:PDN011:     -2    0   -1 -6.74589326E-03  9.299E-04  6.834E-03
:PDN012:     -1    0   -3 -7.03956041E-03  7.149E-04  5.227E-03
:PDN013:     -2    1   -2 -5.56772720E-03  9.099E-04  6.196E-03
:PDN014:     -2    0   -2  3.96590494E-03 -9.938E-05 -1.084E-03
:PDN015:      0    0   -4  6.45976956E-04 -1.057E-04 -7.803E-04

:ENE  : ********** TOTAL ENERGY IN Ry =       -31821.93408644

 Flat Integration
 New Mode for Coulomb Integral
 Consistent 3/8+Simpson combinations
 Extension of core to zero
 LDM version in phi
 Fifth-order quadrature in outwin


            ---------
:ITE004:  4. ITERATION
            ---------

:NATO :    2 INDEPENDENT AND    4 TOTAL ATOMS IN UNITCELL
       SUBSTANCE: Title                                                       

       LATTICE                      = H   
:POT  : POTENTIAL OPTION EX_PBE EC_PBE VX_PBE VC_PBE
:LAT  : LATTICE CONSTANTS=  8.00498  8.00498 11.22975
:VOL  : UNIT CELL VOLUME =     623.19081
       MODE OF CALCULATION IS       = RELA
       SPINPOLARIZED CALCULATION
:IFFT  : FFT-parameters:   64   64   90 Factor: 2.00
       ATOMNUMBER=  1 Mn         VCOUL-ZERO =  0.43778E+00
:EFG001:                        EFG         =    -0.68355   *10**21  V / m**2
                               V20  TOT/SRF=    -0.59197     0.02394
                               V22  TOT/SRF=     0.00000     0.00000
                               V22M TOT/SRF=     0.00000     0.00000
                               V21  TOT/SRF=     0.00000     0.00000
                               V21M TOT/SRF=     0.00000     0.00000

              0.34178    0.00000    0.00000        0.34178    0.00000    0.00000
              0.00000    0.34178    0.00000        0.00000    0.34178    0.00000
              0.00000    0.00000   -0.68355        0.00000    0.00000   -0.68355

         MAIN DIRECTIONS OF THE EFG   1.0000  0.0000  0.0000
                                      0.0000  1.0000  0.0000
                                      0.0000  0.0000  1.0000
:ANG001:  ANGLE WITH OLD X-AXIS =         0.0

:ETA001:                         ASYMM. ETA =     0.00000


       ATOMNUMBER=  2 Te         VCOUL-ZERO =  0.34015E+00
:EFG002:                        EFG         =    -1.55425   *10**21  V / m**2
                               V20  TOT/SRF=    -1.34602    -0.02233
                               V22  TOT/SRF=     0.00000     0.00000
                               V22M TOT/SRF=     0.00000     0.00000
                               V21  TOT/SRF=     0.00000     0.00000
                               V21M TOT/SRF=     0.00000     0.00000

              0.77713    0.00000    0.00000        0.77713    0.00000    0.00000
              0.00000    0.77713    0.00000        0.00000    0.77713    0.00000
              0.00000    0.00000   -1.55425        0.00000    0.00000   -1.55425

         MAIN DIRECTIONS OF THE EFG   1.0000  0.0000  0.0000
                                      0.0000  1.0000  0.0000
                                      0.0000  0.0000  1.0000
:ANG002:  ANGLE WITH OLD X-AXIS =         0.0

:ETA002:                         ASYMM. ETA =     0.00000


:FIT001: LUSE= 13 SIGMA OF V-XC FIT FOR ATOM  1  0.4334945E-02
:FIT001: LUSE= 13 SIGMA OF V-XC FIT FOR ATOM  1  0.8255919E-02
:FIT002: LUSE= 13 SIGMA OF V-XC FIT FOR ATOM  2  0.2823344E-03
:FIT002: LUSE= 13 SIGMA OF V-XC FIT FOR ATOM  2  0.3670842E-03
:DEN  : DENSITY INTEGRAL  =        -12618.59419677   (Ry)
       ELS_POTENTIAL_AT Z=0 and Z=0.5:   0.05505   0.05505
       ELS_POTENTIAL_AT Y=0 and Y=0.5:   0.00000   0.00000
:VZERO:v0,v0c,v0x  -0.67587   0.05505  -0.73092 v5,v5c,v5x  -0.67587   0.05505  -0.73092
:VZERY:v0,v0c,v0x  -0.76029   0.00000  -0.76029 v5,v5c,v5x  -0.76029   0.00000  -0.76029
:VZERX:v0,v0c,v0x  -1.27586  -0.41606  -0.85981 v5,v5c,v5x  -0.30277   0.41398  -0.71675
:LMAX-WF:   10   Non-Spherical LMAX:   4

          ATOMIC SPHERE DEPENDENT PARAMETERS FOR ATOM  Mn        
:e__0001: OVERALL ENERGY PARAMETER IS    0.3048
          OVERALL BASIS SET ON ATOM IS LAPW
:E0_0001: E( 0)=    0.3048
             APW+lo
:E0_0001: E( 0)=   -5.5228   E(BOTTOM)=   -5.534   E(TOP)=   -5.512  2  3   157
             LOCAL ORBITAL
:E1_0001: E( 1)=    0.3048
             APW+lo
:E1_0001: E( 1)=   -3.2311   E(BOTTOM)=   -3.264   E(TOP)=   -3.198  1  2   154
             LOCAL ORBITAL
:E2_0001: E( 2)=    0.2449   E(BOTTOM)=    0.027   E(TOP)=    0.463  0  1   120
             APW+lo

          ATOMIC SPHERE DEPENDENT PARAMETERS FOR ATOM  Te        
:e__0002: OVERALL ENERGY PARAMETER IS    0.3048
          OVERALL BASIS SET ON ATOM IS LAPW
:E1_0002: E( 1)=    0.3048
             APW+lo
:E1_0002: E( 1)=   -7.5393   E(BOTTOM)=   -7.543   E(TOP)=   -7.535  2  3   129
             LOCAL ORBITAL
:E2_0002: E( 2)=    0.3048
             APW+lo
:E2_0002: E( 2)=   -2.2148   E(BOTTOM)=   -2.270   E(TOP)=   -2.160  1  2   143
             LOCAL ORBITAL
:E0_0002: E( 0)=    0.7048
             APW+lo
:E0_0002: E( 0)=   -0.0859   E(BOTTOM)=   -1.101   E(TOP)=    0.929  4  5   202
             LOCAL ORBITAL

       K=   0.00000   0.00000   0.00000            1
:RKM  : MATRIX SIZE   749LOs:  62  RKM= 9.99  WEIGHT= 1.00  PGR:    
       EIGENVALUES ARE:
:EIG00001:      -7.5388930   -7.5388930   -7.5388903   -7.5388903   -7.5381303
:EIG00006:      -7.5381272   -5.5209311   -5.5205824   -3.2251580   -3.2251580
:EIG00011:      -3.2247624   -3.2247624   -3.2245543   -3.2202481   -2.2033447
:EIG00016:      -2.2033447   -2.2033423   -2.2033423   -2.2031242   -2.2031242
:EIG00021:      -2.2026640   -2.2026640   -2.2016830   -2.2016688   -0.4746506
:EIG00026:      -0.3288583    0.0268015    0.1428526    0.1428526    0.1988994
:EIG00031:       0.2389883    0.2389883    0.2574983    0.2574983    0.2967655
:EIG00036:       0.2967655    0.3706732    0.3830351    0.3830351    0.4965380
:EIG00041:       0.5201983    0.5201983    0.6150131    0.6213104    0.8147718
:EIG00046:       0.8147718    0.9563467    0.9563467    1.0219987    1.0536190
 
:EIG00051:       1.0867379    1.0867379    1.0956747    1.0956747    1.1309213
:EIG00056:       1.1791284    1.2630102    1.7584578    1.7584578    1.7614687
:EIG00061:       1.7614687    1.7665686    1.7813018    1.7813018    1.9065047
:EIG00066:       1.9065047    1.9492981    1.9693996    1.9713971
       ********************************************************

:KPT   :      NUMBER OF K-POINTS:   120
:LMAX-WF:   10   Non-Spherical LMAX:   4

          ATOMIC SPHERE DEPENDENT PARAMETERS FOR ATOM  Mn        
:e__0001: OVERALL ENERGY PARAMETER IS    0.3048
          OVERALL BASIS SET ON ATOM IS LAPW
:E0_0001: E( 0)=    0.3048
             APW+lo
:E0_0001: E( 0)=   -5.1620   E(BOTTOM)=   -5.174   E(TOP)=   -5.150  2  3   191
             LOCAL ORBITAL
:E1_0001: E( 1)=    0.3048
             APW+lo
:E1_0001: E( 1)=   -2.8778   E(BOTTOM)=   -2.915   E(TOP)=   -2.841  1  2   188
             LOCAL ORBITAL
:E2_0001: E( 2)=    0.5677   E(BOTTOM)=    0.318   E(TOP)=    0.817  0  1   123
             APW+lo

          ATOMIC SPHERE DEPENDENT PARAMETERS FOR ATOM  Te        
:e__0002: OVERALL ENERGY PARAMETER IS    0.3048
          OVERALL BASIS SET ON ATOM IS LAPW
:E1_0002: E( 1)=    0.3048
             APW+lo
:E1_0002: E( 1)=   -7.5338   E(BOTTOM)=   -7.538   E(TOP)=   -7.530  3  3   128
             LOCAL ORBITAL
:E2_0002: E( 2)=    0.3048
             APW+lo
:E2_0002: E( 2)=   -2.2047   E(BOTTOM)=   -2.258   E(TOP)=   -2.152  1  2   149
             LOCAL ORBITAL
:E0_0002: E( 0)=    0.7048
             APW+lo
:E0_0002: E( 0)=   -0.0307   E(BOTTOM)=   -1.031   E(TOP)=    0.969  4  5   203
             LOCAL ORBITAL

       K=   0.00000   0.00000   0.00000            1
:RKM  : MATRIX SIZE   749LOs:  62  RKM= 9.99  WEIGHT= 1.00  PGR:    
       EIGENVALUES ARE:
:EIG00001:      -7.5334707   -7.5334707   -7.5334678   -7.5334678   -7.5326488
:EIG00006:      -7.5326458   -5.1599645   -5.1595526   -2.8729833   -2.8702823
:EIG00011:      -2.8702823   -2.8697766   -2.8697766   -2.8677048   -2.1939200
:EIG00016:      -2.1939200   -2.1939139   -2.1939139   -2.1935881   -2.1935881
:EIG00021:      -2.1931661   -2.1931661   -2.1921833   -2.1921741   -0.4044117
:EIG00026:      -0.2643047    0.1225986    0.3082325    0.3082325    0.4525783
:EIG00031:       0.4607355    0.4607355    0.5161799    0.5161799    0.5497171
:EIG00036:       0.5497171    0.5686464    0.6188706    0.6188706    0.6880855
:EIG00041:       0.6914406    0.7487683    0.7519651    0.7519651    0.8990382
:EIG00046:       0.8990382    1.0742915    1.0742915    1.1015072    1.1552183
 
:EIG00051:       1.2107011    1.2107011    1.2145736    1.2145736    1.2567793
:EIG00056:       1.2768680    1.3426708    1.8290390    1.8338873    1.8338873
:EIG00061:       1.8348082    1.8348082    1.8675217    1.8675217    2.0005896
:EIG00066:       2.0005896
       ********************************************************

:KPT   :      NUMBER OF K-POINTS:   120
:GAP (global)   :    0.0    Ry =     0.0   eV (metal)
:GAP (this spin):    0.0    Ry =     0.0   eV (metal)
         Bandranges (emin - emax) and occupancy:
:BAN00032:  32    0.196900    0.240288  1.00000000
:BAN00033:  33    0.218703    0.260724  1.00000000
:BAN00034:  34    0.244069    0.271820  1.00000000
:BAN00035:  35    0.262123    0.296765  1.00000000
:BAN00036:  36    0.265940    0.296765  1.00000000
:BAN00037:  37    0.279485    0.370673  1.00000000
:BAN00038:  38    0.283794    0.414368  1.00000000
:BAN00039:  39    0.298112    0.465399  1.00000000
:BAN00040:  40    0.315618    0.497866  1.00000000
:BAN00041:  41    0.381763    0.534179  0.97915509
:BAN00042:  42    0.400630    0.553174  0.49517976
:BAN00043:  43    0.577428    0.762318  0.00000000
:BAN00044:  44    0.621310    0.838874  0.00000000
:BAN00045:  45    0.723308    0.943466  0.00000000
:BAN00046:  46    0.778575    0.963705  0.00000000
:BAN00047:  47    0.824889    1.108571  0.00000000
        Energy to separate low and high energystates:   -0.03616


:NOE  : NUMBER OF ELECTRONS          =  74.000

:FER  : F E R M I - ENERGY(TETRAH.M.)=   0.5058905835
:GMA  : POTENTIAL AND CHARGE CUT-OFF  12.00 Ry**.5




:POS001: ATOM   -1 X,Y,Z = 0.00000 0.00000 0.00000  MULT= 2  ZZ= 25.000  Mn        

       LMMAX  7
       LM=   0 0  2 0  4 0  4 3  6 0  6 3  6 6

:CHA001: TOTAL VALENCE CHARGE INSIDE SPHERE   1 =   8.9525    (RMT=  2.5000 )
:PCS001: PARTIAL CHARGES SPHERE =  1 S,P,D,F,PZ,PXY, D-Z2,D-XY,X2Y2,D-XZ,YZ 
:QTL001: 1.1837 3.1805 4.5753 0.0109 1.0604 2.1202 0.0000 0.9104 1.8329 1.8320 0.0000 0.0000
        Q-s-low E-s-low   Q-p-low E-p-low   Q-d-low E-d-low   Q-f-low E-f-low
:EPL001:  1.0196 -5.4206    3.0111 -3.2080    0.0174 -0.3829    0.0013 -0.5389
        Q-s-hi  E-s-hi    Q-p-hi  E-p-hi    Q-d-hi  E-d-hi    Q-f-hi  E-f-hi 
:EPH001:  0.1641  0.1604    0.1694  0.2618    4.5579  0.2727    0.0096  0.3139
:VZZ001: EFG INSIDE SPHERE   1 =     0.352886      UP TO R =   2.50000




:POS002: ATOM   -2 X,Y,Z = 0.33333 0.66667 0.75000  MULT= 2  ZZ= 52.000  Te        

       LMMAX  7
       LM=   0 0  2 0  3 3  4 0  5 3  6 0  6 6

:CHA002: TOTAL VALENCE CHARGE INSIDE SPHERE   2 =   9.9174    (RMT=  2.5000 )
:PCS002: PARTIAL CHARGES SPHERE =  2 S,P,D,F,PZ,PXY, D-Z2,D-XY,X2Y2,D-XZ,YZ 
:QTL002: 0.7371 4.1498 5.0193 0.0092 1.4015 2.7483 0.0000 1.0009 2.0071 2.0112 0.0000 0.0000
        Q-s-low E-s-low   Q-p-low E-p-low   Q-d-low E-d-low   Q-f-low E-f-low
:EPL002:  0.6652 -0.3727    3.0026 -7.5316    4.9807 -2.2027    0.0002 -0.7811
        Q-s-hi  E-s-hi    Q-p-hi  E-p-hi    Q-d-hi  E-d-hi    Q-f-hi  E-f-hi 
:EPH002:  0.0719  0.3032    1.1472  0.2557    0.0385  0.2800    0.0090  0.2852
:VZZ002: EFG INSIDE SPHERE   2 =    -8.134703      UP TO R =   2.50000

:CHA  : TOTAL VALENCE CHARGE INSIDE UNIT CELL =      41.474335

:SUM  : SUM OF EIGENVALUES =         -94.399491975

:GAP (global)   :    0.0    Ry =     0.0   eV (metal)
:GAP (this spin):    0.0    Ry =     0.0   eV (metal)
         Bandranges (emin - emax) and occupancy:
:BAN00024:  24   -2.192181   -2.192080  1.00000000
:BAN00025:  25   -0.404412   -0.286249  1.00000000
:BAN00026:  26   -0.336626   -0.262373  1.00000000
:BAN00027:  27    0.108129    0.273794  1.00000000
:BAN00028:  28    0.130813    0.337830  1.00000000
:BAN00029:  29    0.189808    0.350009  1.00000000
:BAN00030:  30    0.211521    0.452578  1.00000000
:BAN00031:  31    0.307605    0.460736  1.00000000
:BAN00032:  32    0.317191    0.475287  1.00000000
:BAN00033:  33    0.444768    0.545468  0.52567092
:BAN00034:  34    0.516180    0.568132 -0.00000578
:BAN00035:  35    0.524034    0.579517  0.00000000
:BAN00036:  36    0.549717    0.590619  0.00000000
:BAN00037:  37    0.558480    0.610877  0.00000000
:BAN00038:  38    0.558536    0.627194  0.00000000
:BAN00039:  39    0.610194    0.674641  0.00000000
        Energy to separate low and high energystates:    0.05813


:NOE  : NUMBER OF ELECTRONS          =  74.000

:FER  : F E R M I - ENERGY(TETRAH.M.)=   0.5058905835
:GMA  : POTENTIAL AND CHARGE CUT-OFF  12.00 Ry**.5




:POS001: ATOM   -1 X,Y,Z = 0.00000 0.00000 0.00000  MULT= 2  ZZ= 25.000  Mn        

       LMMAX  7
       LM=   0 0  2 0  4 0  4 3  6 0  6 3  6 6

:CHA001: TOTAL VALENCE CHARGE INSIDE SPHERE   1 =   4.8804    (RMT=  2.5000 )
:PCS001: PARTIAL CHARGES SPHERE =  1 S,P,D,F,PZ,PXY, D-Z2,D-XY,X2Y2,D-XZ,YZ 
:QTL001: 1.1369 3.1308 0.6037 0.0076 1.0502 2.0806 0.0000 0.1830 0.1803 0.2404 0.0000 0.0000
        Q-s-low E-s-low   Q-p-low E-p-low   Q-d-low E-d-low   Q-f-low E-f-low
:EPL001:  1.0166 -5.0786    3.0085 -2.8568    0.0121 -0.3248    0.0013 -0.4685
        Q-s-hi  E-s-hi    Q-p-hi  E-p-hi    Q-d-hi  E-d-hi    Q-f-hi  E-f-hi 
:EPH001:  0.1202  0.2018    0.1223  0.2862    0.5916  0.3807    0.0063  0.3274
:VZZ001: EFG INSIDE SPHERE   1 =    -3.092212      UP TO R =   2.50000




:POS002: ATOM   -2 X,Y,Z = 0.33333 0.66667 0.75000  MULT= 2  ZZ= 52.000  Te        

       LMMAX  7
       LM=   0 0  2 0  3 3  4 0  5 3  6 0  6 6

:CHA002: TOTAL VALENCE CHARGE INSIDE SPHERE   2 =   9.7762    (RMT=  2.5000 )
:PCS002: PARTIAL CHARGES SPHERE =  2 S,P,D,F,PZ,PXY, D-Z2,D-XY,X2Y2,D-XZ,YZ 
:QTL002: 0.7074 4.0625 5.0026 0.0031 1.3574 2.7051 0.0000 1.0008 2.0033 1.9984 0.0000 0.0000
        Q-s-low E-s-low   Q-p-low E-p-low   Q-d-low E-d-low   Q-f-low E-f-low
:EPL002:  0.6789 -0.3048    3.0025 -7.5264    4.9819 -2.1932    0.0002 -0.7847
        Q-s-hi  E-s-hi    Q-p-hi  E-p-hi    Q-d-hi  E-d-hi    Q-f-hi  E-f-hi 
:EPH002:  0.0285  0.2284    1.0600  0.2888    0.0206  0.3547    0.0029  0.3657
:VZZ002: EFG INSIDE SPHERE   2 =    -2.021986      UP TO R =   2.50000

:CHA  : TOTAL VALENCE CHARGE INSIDE UNIT CELL =      32.525665

:SUM  : SUM OF EIGENVALUES =         -93.336189992


        1.ATOM      Mn                    4 CORE STATES
:1S 001: 1S                -471.484770877 Ry
:2S 001: 2S                 -53.741557991 Ry
:2PP001: 2P*                -45.876606757 Ry
:2P 001: 2P                 -45.111415951 Ry

        2.ATOM      Te                   10 CORE STATES
:1S 002: 1S               -2322.218705966 Ry
:2S 002: 2S                -355.270087218 Ry
:2PP002: 2P*               -332.796102643 Ry
:2P 002: 2P                -312.620920819 Ry
:3S 002: 3S                 -70.013505088 Ry
:3PP002: 3P*                -60.775876909 Ry
:3P 002: 3P                 -57.015477045 Ry
:3DD002: 3D*                -40.727336940 Ry
:3D 002: 3D                 -39.941043146 Ry
:4S 002: 4S                 -11.211117804 Ry

        1.ATOM      Mn                    4 CORE STATES
[...]
:e__0001: OVERALL ENERGY PARAMETER IS    0.3101
          OVERALL BASIS SET ON ATOM IS LAPW
:E0_0001: E( 0)=    0.1800
             APW+lo
:E0_0001: E( 0)=   -5.4856   E(BOTTOM)=   -5.497   E(TOP)=   -5.474  2  2   111
             LOCAL ORBITAL
:E1_0001: E( 1)=    0.2800
             APW+lo
:E1_0001: E( 1)=   -3.1945   E(BOTTOM)=   -3.228   E(TOP)=   -3.161  1  2   101
             LOCAL ORBITAL
:E2_0001: E( 2)=    0.3030
             APW+lo

          ATOMIC SPHERE DEPENDENT PARAMETERS FOR ATOM  Te        
:e__0002: OVERALL ENERGY PARAMETER IS    0.3101
          OVERALL BASIS SET ON ATOM IS LAPW
:E0_0002: E( 0)=    0.3220
             APW+lo
:E0_0002: E( 0)=   -0.3560
             LOCAL ORBITAL
:E1_0002: E( 1)=    0.2610
             APW+lo
:E1_0002: E( 1)=   -7.5695   E(BOTTOM)=   -7.573   E(TOP)=   -7.566  2  2   103
             LOCAL ORBITAL
:E2_0002: E( 2)=    0.3010
             APW+lo
:E2_0002: E( 2)=   -2.2290
             LOCAL ORBITAL

       K=   0.00000   0.00000   0.00000            1
:RKM  : MATRIX SIZE   749LOs:  62  RKM= 9.99  WEIGHT= 1.00  PGR:    
       EIGENVALUES ARE:
:EIG00001:      -7.5692723   -7.5692723   -7.5692696   -7.5692696   -7.5680001
:EIG00006:      -7.5679971   -5.4837426   -5.4833981   -3.1955121   -3.1955121
:EIG00011:      -3.1951178   -3.1951178   -3.1737882   -3.1694873   -2.2293647
:EIG00016:      -2.2293647   -2.2293601   -2.2293601   -2.2287814   -2.2287814
:EIG00021:      -2.2283533   -2.2283533   -2.2275268   -2.2275145   -0.4576502
:EIG00026:      -0.3116891    0.0434001    0.1697243    0.1697243    0.2487620
:EIG00031:       0.2672915    0.2672915    0.2815470    0.2815470    0.3320951
:EIG00036:       0.3320951    0.4052189    0.4052189    0.4203966    0.5148397
:EIG00041:       0.5449367    0.5449367    0.6377462    0.6378592    0.8299570
:EIG00046:       0.8299570    0.9682910    0.9682910    1.0516191    1.0765180
 
:EIG00051:       1.1100507    1.1100507    1.1114273    1.1114273    1.1501927
:EIG00056:       1.1928744    1.2814975    1.7748033    1.7748033    1.7761424
:EIG00061:       1.7761424    1.7795601    1.8007651    1.8007651    1.9235063
:EIG00066:       1.9235063    1.9656480    1.9871434    1.9999034
       ********************************************************

:KPT   :      NUMBER OF K-POINTS:   120
:LMAX-WF:   10   Non-Spherical LMAX:   4

          ATOMIC SPHERE DEPENDENT PARAMETERS FOR ATOM  Mn        
:e__0001: OVERALL ENERGY PARAMETER IS    0.3101
          OVERALL BASIS SET ON ATOM IS LAPW
:E0_0001: E( 0)=    0.1760
             APW+lo
:E0_0001: E( 0)=   -5.1829   E(BOTTOM)=   -5.195   E(TOP)=   -5.171  2  2   111
             LOCAL ORBITAL
:E1_0001: E( 1)=    0.2520
             APW+lo
:E1_0001: E( 1)=   -2.8780
             LOCAL ORBITAL
:E2_0001: E( 2)=    0.3780
             APW+lo

          ATOMIC SPHERE DEPENDENT PARAMETERS FOR ATOM  Te        
:e__0002: OVERALL ENERGY PARAMETER IS    0.3101
          OVERALL BASIS SET ON ATOM IS LAPW
:E0_0002: E( 0)=    0.2030
             APW+lo
:E0_0002: E( 0)=   -0.3510
             LOCAL ORBITAL
:E1_0002: E( 1)=    0.2530
             APW+lo
:E1_0002: E( 1)=   -7.5690   E(BOTTOM)=   -7.573   E(TOP)=   -7.565  2  2   101
             LOCAL ORBITAL
:E2_0002: E( 2)=    0.3490
             APW+lo
:E2_0002: E( 2)=   -2.2280
             LOCAL ORBITAL

       K=   0.00000   0.00000   0.00000            1
:RKM  : MATRIX SIZE   749LOs:  62  RKM= 9.99  WEIGHT= 1.00  PGR:    
       EIGENVALUES ARE:
:EIG00001:      -7.5688509   -7.5688509   -7.5688486   -7.5688486   -7.5674572
:EIG00006:      -7.5674541   -5.1809151   -5.1805057   -2.8932936   -2.8932936
:EIG00011:      -2.8927984   -2.8927984   -2.8872193   -2.8819888   -2.2289825
:EIG00016:      -2.2289825   -2.2289565   -2.2289565   -2.2280998   -2.2280998
:EIG00021:      -2.2276425   -2.2276425   -2.2270327   -2.2270279   -0.4481964
:EIG00026:      -0.3105903    0.0827521    0.2684019    0.2684019    0.4162100
:EIG00031:       0.4162100    0.4334903    0.5046524    0.5046524    0.5168639
:EIG00036:       0.5262667    0.5262667    0.6095759    0.6095759    0.6614453
:EIG00041:       0.6690366    0.7203399    0.7203399    0.7307554    0.8693400
:EIG00046:       0.8693400    1.0533490    1.0533490    1.0746664    1.1248578
 
:EIG00051:       1.1709264    1.1709264    1.1895765    1.1895765    1.2275477
:EIG00056:       1.2583863    1.3008845    1.7887159    1.7887159    1.7916635
:EIG00061:       1.7916635    1.7930068    1.8383279    1.8383279    1.9752171
:EIG00066:       1.9752171    1.9809412    1.9832680
       ********************************************************

:KPT   :      NUMBER OF K-POINTS:   120
:GAP (global)   :    0.0    Ry =     0.0   eV (metal)
:GAP (this spin):    0.0    Ry =     0.0   eV (metal)
         Bandranges (emin - emax) and occupancy:
:BAN00032:  32    0.218125    0.268611  1.00000000
:BAN00033:  33    0.246229    0.292786  1.00000000
:BAN00034:  34    0.272460    0.298955  1.00000000
:BAN00035:  35    0.290687    0.332095  1.00000000
:BAN00036:  36    0.294412    0.332095  1.00000000
:BAN00037:  37    0.311731    0.414216  1.00000000
:BAN00038:  38    0.319597    0.431924  1.00000000
:BAN00039:  39    0.334499    0.490485  1.00000000
:BAN00040:  40    0.342602    0.517410  0.99839788
:BAN00041:  41    0.411431    0.558784  0.88445395
:BAN00042:  42    0.429094    0.579968  0.23826584
:BAN00043:  43    0.602386    0.780095  0.00000000
:BAN00044:  44    0.637859    0.859550  0.00000000
:BAN00045:  45    0.743580    0.969776  0.00000000
:BAN00046:  46    0.790806    0.977866  0.00000000
:BAN00047:  47    0.840745    1.128482  0.00000000
        Energy to separate low and high energystates:   -0.01085


:NOE  : NUMBER OF ELECTRONS          =  74.000

:FER  : F E R M I - ENERGY(TETRAH.M.)=   0.5102640189
:GMA  : POTENTIAL AND CHARGE CUT-OFF  12.00 Ry**.5




:POS001: ATOM   -1 X,Y,Z = 0.00000 0.00000 0.00000  MULT= 2  ZZ= 25.000  Mn        

       LMMAX  7
       LM=   0 0  2 0  4 0  4 3  6 0  6 3  6 6

:CHA001: TOTAL VALENCE CHARGE INSIDE SPHERE   1 =   8.8660    (RMT=  2.5000 )
:PCS001: PARTIAL CHARGES SPHERE =  1 S,P,D,F,PZ,PXY, D-Z2,D-XY,X2Y2,D-XZ,YZ 
:QTL001: 1.1826 3.1761 4.4954 0.0101 1.0570 2.1191 0.0000 0.8970 1.8060 1.7924 0.0000 0.0000
        Q-s-low E-s-low   Q-p-low E-p-low   Q-d-low E-d-low   Q-f-low E-f-low
:EPL001:  1.0191 -5.3860    3.0107 -3.1717    0.0167 -0.3688    0.0013 -0.5223
        Q-s-hi  E-s-hi    Q-p-hi  E-p-hi    Q-d-hi  E-d-hi    Q-f-hi  E-f-hi 
:EPH001:  0.1635  0.1798    0.1654  0.2799    4.4787  0.3030    0.0088  0.3237
:VZZ001: EFG INSIDE SPHERE   1 =     0.606541      UP TO R =   2.50000




:POS002: ATOM   -2 X,Y,Z = 0.33333 0.66667 0.75000  MULT= 2  ZZ= 52.000  Te        

       LMMAX  7
       LM=   0 0  2 0  3 3  4 0  5 3  6 0  6 6

:CHA002: TOTAL VALENCE CHARGE INSIDE SPHERE   2 =   9.8581    (RMT=  2.5000 )
:PCS002: PARTIAL CHARGES SPHERE =  2 S,P,D,F,PZ,PXY, D-Z2,D-XY,X2Y2,D-XZ,YZ 
:QTL002: 0.7391 4.0879 5.0199 0.0093 1.3707 2.7173 0.0000 1.0012 2.0071 2.0116 0.0000 0.0000
        Q-s-low E-s-low   Q-p-low E-p-low   Q-d-low E-d-low   Q-f-low E-f-low
:EPL002:  0.6693 -0.3562    3.0026 -7.5619    4.9817 -2.2285    0.0002 -0.8520
        Q-s-hi  E-s-hi    Q-p-hi  E-p-hi    Q-d-hi  E-d-hi    Q-f-hi  E-f-hi 
:EPH002:  0.0698  0.3221    1.0853  0.2611    0.0382  0.3015    0.0091  0.3119
:VZZ002: EFG INSIDE SPHERE   2 =    -3.954120      UP TO R =   2.50000

:CHA  : TOTAL VALENCE CHARGE INSIDE UNIT CELL =      41.121118

:SUM  : SUM OF EIGENVALUES =         -94.254388581

:GAP (global)   :    0.0    Ry =     0.0   eV (metal)
:GAP (this spin):    0.0    Ry =     0.0   eV (metal)
         Bandranges (emin - emax) and occupancy:
:BAN00025:  25   -0.448196   -0.333648  1.00000000
:BAN00026:  26   -0.381351   -0.309250  1.00000000
:BAN00027:  27    0.072840    0.232206  1.00000000
:BAN00028:  28    0.094036    0.295898  1.00000000
:BAN00029:  29    0.149812    0.310212  1.00000000
:BAN00030:  30    0.177512    0.416210  1.00000000
:BAN00031:  31    0.271378    0.416210  1.00000000
:BAN00032:  32    0.276213    0.450338  1.00000000
:BAN00033:  33    0.425175    0.525314  0.87652124
:BAN00034:  34    0.504652    0.550828  0.00178285
:BAN00035:  35    0.506654    0.562249  0.00057824
:BAN00036:  36    0.526267    0.571518  0.00000000
:BAN00037:  37    0.526267    0.599927  0.00000000
:BAN00038:  38    0.546492    0.610055  0.00000000
:BAN00039:  39    0.594070    0.646126  0.00000000
:BAN00040:  40    0.596329    0.661445  0.00000000
        Energy to separate low and high energystates:    0.02284


:NOE  : NUMBER OF ELECTRONS          =  74.000

:FER  : F E R M I - ENERGY(TETRAH.M.)=   0.5102640189
:GMA  : POTENTIAL AND CHARGE CUT-OFF  12.00 Ry**.5




:POS001: ATOM   -1 X,Y,Z = 0.00000 0.00000 0.00000  MULT= 2  ZZ= 25.000  Mn        

       LMMAX  7
       LM=   0 0  2 0  4 0  4 3  6 0  6 3  6 6

:CHA001: TOTAL VALENCE CHARGE INSIDE SPHERE   1 =   4.9372    (RMT=  2.5000 )
:PCS001: PARTIAL CHARGES SPHERE =  1 S,P,D,F,PZ,PXY, D-Z2,D-XY,X2Y2,D-XZ,YZ 
:QTL001: 1.1306 3.1261 0.6703 0.0084 1.0482 2.0779 0.0000 0.2572 0.1803 0.2328 0.0000 0.0000
        Q-s-low E-s-low   Q-p-low E-p-low   Q-d-low E-d-low   Q-f-low E-f-low
:EPL001:  1.0153 -5.1062    3.0078 -2.8777    0.0113 -0.3733    0.0013 -0.5150
        Q-s-hi  E-s-hi    Q-p-hi  E-p-hi    Q-d-hi  E-d-hi    Q-f-hi  E-f-hi 
:EPH001:  0.1153  0.1759    0.1183  0.2520    0.6590  0.3785    0.0072  0.3038
:VZZ001: EFG INSIDE SPHERE   1 =    -4.214284      UP TO R =   2.50000




:POS002: ATOM   -2 X,Y,Z = 0.33333 0.66667 0.75000  MULT= 2  ZZ= 52.000  Te        

       LMMAX  7
       LM=   0 0  2 0  3 3  4 0  5 3  6 0  6 6

:CHA002: TOTAL VALENCE CHARGE INSIDE SPHERE   2 =   9.8503    (RMT=  2.5000 )
:PCS002: PARTIAL CHARGES SPHERE =  2 S,P,D,F,PZ,PXY, D-Z2,D-XY,X2Y2,D-XZ,YZ 
:QTL002: 0.7111 4.1304 5.0047 0.0034 1.3826 2.7478 0.0000 1.0018 2.0040 1.9989 0.0000 0.0000
        Q-s-low E-s-low   Q-p-low E-p-low   Q-d-low E-d-low   Q-f-low E-f-low
:EPL002:  0.6831 -0.3512    3.0024 -7.5619    4.9816 -2.2280    0.0002 -0.9395
        Q-s-hi  E-s-hi    Q-p-hi  E-p-hi    Q-d-hi  E-d-hi    Q-f-hi  E-f-hi 
:EPH002:  0.0280  0.2029    1.1280  0.2535    0.0231  0.3496    0.0033  0.3572
:VZZ002: EFG INSIDE SPHERE   2 =    -3.011123      UP TO R =   2.50000

:CHA  : TOTAL VALENCE CHARGE INSIDE UNIT CELL =      32.878882

:SUM  : SUM OF EIGENVALUES =         -94.215114433


        1.ATOM      Mn                    4 CORE STATES
:1S 001: 1S                -471.495717809 Ry
:2S 001: 2S                 -53.731693270 Ry
:2PP001: 2P*                -45.870557738 Ry
:2P 001: 2P                 -45.105038100 Ry

        2.ATOM      Te                   10 CORE STATES
:1S 002: 1S               -2322.286287994 Ry
:2S 002: 2S                -355.317444683 Ry
:2PP002: 2P*               -332.845027604 Ry
:2P 002: 2P                -312.669114536 Ry
:3S 002: 3S                 -70.051758467 Ry
:3PP002: 3P*                -60.814241757 Ry
:3P 002: 3P                 -57.053585660 Ry
:3DD002: 3D*                -40.765559767 Ry
:3D 002: 3D                 -39.979164198 Ry
:4S 002: 4S                 -11.242025243 Ry

        1.ATOM      Mn                    4 CORE STATES
:1S 001: 1S                -471.496416451 Ry
:2S 001: 2S                 -53.609788731 Ry
:2PP001: 2P*                -45.779509122 Ry
:2P 001: 2P                 -45.011476393 Ry

        2.ATOM      Te                   10 CORE STATES
:1S 002: 1S               -2322.286202766 Ry
:2S 002: 2S                -355.317270747 Ry
:2PP002: 2P*               -332.844932569 Ry
:2P 002: 2P                -312.669007587 Ry
:3S 002: 3S                 -70.051628369 Ry
:3PP002: 3P*                -60.814118012 Ry
:3P 002: 3P                 -57.053457215 Ry
:3DD002: 3D*                -40.765406742 Ry
:3D 002: 3D                 -39.979010424 Ry
:4S 002: 4S                 -11.241604150 Ry
:CINT001 Core Integral Atom   1 Up    5.000000 Dn   5.000000 Total  10.000000
:CINT002 Core Integral Atom   2 Up   14.999984 Dn  14.999984 Total  29.999968

       DENSITY AT NUCLEUS
        JATOM        VALENCE       SEMI-CORE          CORE           TOTAL
:RTO001:   1      162.846937        0.000000    13171.415600    13334.262537
:RTO002:   2      162.559517        0.000000   322106.015728   322268.575245

       HYPERFINE FIELDS FOR THOMSON RADIUS
:HFF001:          714.242           0.000        -810.298         -96.055 (KGAUSS)
:HFF002:          950.551           0.000           3.597         954.149 (KGAUSS)
     
       CHARGES OF NEW CHARGE DENSITY
:NTO   : INTERSTITIAL     UP =     3.672848 DN =     3.304005 TOT =     6.976853
:NPC   : INTERSTITIAL     UP =     8.874169 DN =     7.264923 TOT =    16.139092
:NTO001: CHARGE SPHERE  1 UP =    13.866034 DN =     9.937160 TOT =    23.803194
:NTO002: CHARGE SPHERE  2 UP =    24.858083 DN =    24.850262 TOT =    49.708345

:NEC01: NUCLEAR AND ELECTRONIC CHARGE    154.00000   153.99993
     
       CHARGES OF OLD CHARGE DENSITY
:OTO   : INTERSTITIAL     UP =     3.672074 DN =     3.304030 TOT =     6.976103
:OPC   : INTERSTITIAL     UP =     8.873190 DN =     7.264599 TOT =    16.137789
:OTO001: CHARGE SPHERE  1 UP =    13.866097 DN =     9.937737 TOT =    23.803834
:OTO002: CHARGE SPHERE  2 UP =    24.857784 DN =    24.850330 TOT =    49.708115

:NEC02: NUCLEAR AND ELECTRONIC CHARGE    154.00000   154.00000
     
       CONVERGENCE TEST
:DTO001: DIFFERENCE SPHERE  1 UP =  0.0003392 DN =  0.0006416 TOT =  0.0009808
:DTO002: DIFFERENCE SPHERE  2 UP =  0.0004267 DN =  0.0004043 TOT =  0.0008310

:DIS  :  CHARGE DISTANCE       ( 0.0006416 for atom    1 spin 2)      0.0018119
 
******************************************************
* MULTISECANT MIXING VER9 RELEASE 9.4.1              *
* Standard Mode with controls                        *
* Fixed density scale                                *
* Regularization       1.000E-04                     *
* Trust Upper Limit    5.000E+00                     *
* Max Number of Memory Steps    8                    *
******************************************************
 
:PWTMP   3.6139E+02  5.0000E+02  6.2319E+02
:PLANE:  PW TOTAL      4.6222 DISTAN   1.02E-03  2.21E-02 %
:CHARG:  CLM/ATOM    400.2971 DISTAN   6.74E-04  1.68E-04 %
 
Step History
        DMIX         DMIXT        Red     Pred      Trust     Lambda    MagRel    MagAbs     Beta
  5   1.6077E-01   7.1038E-02  7.96E-01  7.86E-01  3.11E-01  9.25E-01  2.16E-01  2.39E-01  8.00E-01
  6   7.2038E-02   4.6748E-02  6.73E-01  6.42E-01  5.60E-01  9.14E-01  3.63E-01  3.20E-01  7.87E-01
  7   1.5243E-01   1.3840E-01  3.16E-01  3.54E-01  1.07E+00  8.34E-01  8.24E-01  4.89E-01  9.59E-01
  8   7.2511E-02   7.2511E-02  3.45E-01  3.93E-01  2.18E+00  3.71E-01  1.17E+00  2.20E-01  1.00E+00
  9   1.0416E-01   1.0416E-01  7.71E-01  8.55E-01  2.82E+00  9.43E-01  2.23E-01  1.44E-02  1.00E+00
 10   2.6039E-01   2.6039E-01  2.71E-01  4.50E-01  2.34E+00  8.61E-01  8.58E-01  4.28E-02  1.00E+00
 11   2.4639E-01   2.4639E-01  5.02E-01  7.55E-01  3.47E+00  8.69E-01  6.34E-01  8.56E-03  1.00E+00
 12   4.1382E-01   4.1382E-01  4.52E-01  5.32E-01  4.02E+00  6.07E-01  8.93E-01  6.06E-03  1.00E+00
 13   4.5431E-01   4.5431E-01 -1.00E+00  3.61E-01  4.88E+00  1.00E+00  1.05E+00  3.23E-03  1.00E+00
:JACOBIANS    1.450E+00   1.485E+00
  
:NORMS:  1/Froebius, Min, Max, Used   0.1146E+01  0.6874E+00  0.1398E+01  0.1340E+01
:INFO :  Number of Memory Steps    8 Skipping    4
:INFO :  SLambda=    0.9953945  Max    0.9953945

Eigenvalues, unscaled except for SY+YY
   #     SY Real        SY Imag          SS             YY         SY+YY Real      SY+YY Imag
   1   4.946006E+00   0.000000E+00   6.780211E+00   3.778412E+00   8.698412E+00   0.000000E+00
   2   2.663465E+00   0.000000E+00   2.828866E+00   2.595442E+00   5.251134E+00   0.000000E+00
   3   8.067410E-01   0.000000E+00   7.391326E-01   1.144424E+00   1.897245E+00   0.000000E+00
   4   2.577906E-01   0.000000E+00   1.577497E-01   4.258930E-01   7.282182E-01   0.000000E+00
   5   4.748214E-05   0.000000E+00   2.412996E-03   3.115435E-02   3.928390E-02   0.000000E+00
   6   6.938525E-03   0.000000E+00   1.462546E-03   1.583438E-02   1.270425E-04   0.000000E+00
   7   3.726650E-03   6.764793E-04   8.251445E-04   8.761572E-03   1.184531E-02   0.000000E+00
   8   3.726650E-03  -6.764793E-04   1.971619E-05   7.881938E-05   2.216278E-02   0.000000E+00
 
:INFO :  Singular value  8.714E+00 Weight  1.000E+00 Projection -2.589E-04
:INFO :  Singular value  5.251E+00 Weight  1.000E+00 Projection  7.512E-07
:INFO :  Singular value  1.895E+00 Weight  1.000E+00 Projection -6.538E-05
:INFO :  Singular value  7.286E-01 Weight  1.000E+00 Projection -1.014E-05
:INFO :  Singular value  3.939E-02 Weight  9.999E-01 Projection  5.842E-03
:INFO :  Singular value  2.219E-02 Weight  9.997E-01 Projection  1.633E-03
:INFO :  Singular value  1.179E-02 Weight  9.990E-01 Projection -4.459E-03
:INFO :  Singular value  1.270E-04 Weight  1.015E-01 Projection  6.578E-03
:RANK :  ACTIVE   7.10/8  =  88.75 %
 
:BLIM :  VZERO Control Off
:TRUST:  Step 5.22E+00  Charge 6.23E-03 (e) CTO  4.45E-02 (e) PW  4.52E-01 (e)
:DIRM :  MEMORY  8/8  SCALE   1.000 RED  0.47 PRED  0.36 NEXT  0.40 
:TRAVE:  Charge 5.17E-04 (e) CTO  9.10E-04 (e) PW  1.06E-02 (e)
:DIRP :  |MSR1|= 2.386E-04 |PRATT|= 5.119E-04 ANGLE=  22.4 DEGREES
:DIRQ :  |MSR1|= 3.788E-04 |PRATT|= 1.349E-03 ANGLE=  30.7 DEGREES
:DIRT :  |MSR1|= 4.476E-04 |PRATT|= 1.443E-03 ANGLE=  31.3 DEGREES
:MIX  :   MSE1   REGULARIZATION:  3.78E-04 GREED: 0.31551  Newton 1.00  0.3103                
     
       CHARGES OF MIXED CHARGE DENSITY
:CTO   : INTERSTITIAL     UP =     3.672362 DN =     3.303880 TOT =     6.976242
:CPC   : INTERSTITIAL     UP =     8.873805 DN =     7.264715 TOT =    16.138519
:CTO001: CHARGE SPHERE  1 UP =    13.866163 DN =     9.937553 TOT =    23.803717
:CTO002: CHARGE SPHERE  2 UP =    24.857913 DN =    24.850249 TOT =    49.708162

       SPIN MAGNETIC MOMENTS OF MIXED CHARGE DENSITY
:MMINT:  MAGNETIC MOMENT IN INTERSTITIAL  =    0.36848
:MMI001: MAGNETIC MOMENT IN SPHERE   1    =    3.92861
:MMI002: MAGNETIC MOMENT IN SPHERE   2    =    0.00766
:MMTOT:  SPIN MAGNETIC MOMENT IN CELL     =    8.24103

:NEC03: NUCLEAR AND ELECTRONIC CHARGE    154.00000   154.00000

PW CHANGE     H    K    L      Current       Change    Residue
:PUP001:      0    0    0  2.01321426E-02  1.448E-06  3.013E-06
:PUP003:     -1    0    0  2.82779272E-03 -1.212E-06 -9.626E-07
:PUP004:     -1    0   -1  4.54287855E-02  5.087E-06  6.575E-06
:PUP005:      0    0   -2 -3.04098129E-03 -8.173E-07 -6.595E-07
:PUP006:     -1    0   -2  2.21181026E-02  8.939E-07 -1.111E-06
:PUP007:     -2    1    0  1.07664590E-02  1.190E-06  1.297E-06
:PUP010:     -2    0    0 -1.01885355E-03 -3.904E-07 -4.271E-07
:PUP011:     -2    0   -1 -2.22818446E-03 -2.929E-07  7.900E-07
:PUP012:     -1    0   -3 -2.66240688E-03 -4.641E-07  2.071E-06
:PUP013:     -2    1   -2 -2.18228117E-03 -6.262E-07  7.204E-07
:PUP014:     -2    0   -2  4.64176970E-05  9.236E-07  8.619E-07
:PUP015:      0    0   -4 -4.43196971E-04  3.762E-08 -4.028E-07
  
:PDN001:      0    0    0  1.69588426E-02 -5.331E-08  6.483E-07
:PDN003:     -1    0    0 -6.19182963E-03 -1.298E-06 -5.545E-06
:PDN004:     -1    0   -1  4.53714820E-02  2.637E-06  8.092E-06
:PDN005:      0    0   -2 -6.07913957E-03  3.236E-07 -8.004E-08
:PDN006:     -1    0   -2  1.45332041E-02  3.092E-06  5.273E-06
:PDN007:     -2    1    0  9.98974886E-03  2.933E-06  6.367E-06
:PDN010:     -2    0    0  1.80001443E-04 -7.262E-07 -1.837E-06
:PDN011:     -2    0   -1 -8.77595525E-04 -3.864E-06 -8.923E-06
:PDN012:     -1    0   -3 -2.16489162E-03 -1.544E-06 -3.285E-06
:PDN013:     -2    1   -2 -1.88735330E-04 -2.446E-06 -6.180E-06
:PDN014:     -2    0   -2  2.54371133E-03  1.623E-06  3.209E-06
:PDN015:      0    0   -4 -8.22418584E-05  2.873E-07  7.045E-07

:ENE  : ********** TOTAL ENERGY IN Ry =       -31822.00990231

