
:LABEL1: Calculations in /home/n1/WIEN2k/MnTe-AFM-scf
:LABEL2: on n1 at Wed Oct 16 20:58:24 +0330 2019
:LABEL3: using WIEN2k_18.2 (Release 17/7/2018) in /home/n1/WIEN2k18
:LABEL4: using the command: runsp_lapw -p -in1new 5 -i 400 -ec 0.0001 -cc 0.001 -NI
 Flat Integration
 New Mode for Coulomb Integral
 Consistent 3/8+Simpson combinations
 Extension of core to zero
 LDM version in phi
 Fifth-order quadrature in outwin


            ---------
:ITE001:  1. ITERATION
            ---------

:NATO :    3 INDEPENDENT AND    4 TOTAL ATOMS IN UNITCELL
       SUBSTANCE: Title                                                       

       LATTICE                      = H   
:POT  : POTENTIAL OPTION EX_PBE EC_PBE VX_PBE VC_PBE
:LAT  : LATTICE CONSTANTS=  7.78058  7.78058 12.20773
:VOL  : UNIT CELL VOLUME =     640.01424
       MODE OF CALCULATION IS       = RELA
       SPINPOLARIZED CALCULATION
:IFFT  : FFT-parameters:   60   60   96 Factor: 2.00
       ATOMNUMBER=  1 Mnfloor    VCOUL-ZERO =  0.42290E+00
:EFG001:                        EFG         =     0.02075   *10**21  V / m**2
                               V20  TOT/SRF=     0.01797     0.02912
                               V22  TOT/SRF=     0.00000     0.00000
                               V22M TOT/SRF=     0.00000     0.00000
                               V21  TOT/SRF=     0.00000     0.00000
                               V21M TOT/SRF=     0.00000     0.00000

             -0.01038    0.00000    0.00000       -0.01038    0.00000    0.00000
              0.00000   -0.01038    0.00000        0.00000   -0.01038    0.00000
              0.00000    0.00000    0.02075        0.00000    0.00000    0.02075

         MAIN DIRECTIONS OF THE EFG   1.0000  0.0000  0.0000
                                      0.0000  1.0000  0.0000
                                      0.0000  0.0000  1.0000
:ANG001:  ANGLE WITH OLD X-AXIS =         0.0

:ETA001:                         ASYMM. ETA =     0.00000


       ATOMNUMBER=  2 Te         VCOUL-ZERO =  0.32158E+00
:EFG002:                        EFG         =    -0.00556   *10**21  V / m**2
                               V20  TOT/SRF=    -0.00481    -0.00797
                               V22  TOT/SRF=     0.00000     0.00000
                               V22M TOT/SRF=     0.00000     0.00000
                               V21  TOT/SRF=     0.00000     0.00000
                               V21M TOT/SRF=     0.00000     0.00000

              0.00278    0.00000    0.00000        0.00278    0.00000    0.00000
              0.00000    0.00278    0.00000        0.00000    0.00278    0.00000
              0.00000    0.00000   -0.00556        0.00000    0.00000   -0.00556

         MAIN DIRECTIONS OF THE EFG   1.0000  0.0000  0.0000
                                      0.0000  1.0000  0.0000
                                      0.0000  0.0000  1.0000
:ANG002:  ANGLE WITH OLD X-AXIS =         0.0

:ETA002:                         ASYMM. ETA =     0.00000


       ATOMNUMBER=  3 Mnmid      VCOUL-ZERO =  0.42290E+00
:EFG003:                        EFG         =     0.02075   *10**21  V / m**2
                               V20  TOT/SRF=     0.01797     0.02912
                               V22  TOT/SRF=     0.00000     0.00000
                               V22M TOT/SRF=     0.00000     0.00000
                               V21  TOT/SRF=     0.00000     0.00000
                               V21M TOT/SRF=     0.00000     0.00000

             -0.01038    0.00000    0.00000       -0.01038    0.00000    0.00000
              0.00000   -0.01038    0.00000        0.00000   -0.01038    0.00000
              0.00000    0.00000    0.02075        0.00000    0.00000    0.02075

         MAIN DIRECTIONS OF THE EFG   1.0000  0.0000  0.0000
                                      0.0000  1.0000  0.0000
                                      0.0000  0.0000  1.0000
:ANG003:  ANGLE WITH OLD X-AXIS =         0.0

:ETA003:                         ASYMM. ETA =     0.00000


     HELLMANN-FEYNMAN-FORCE IN mRy/a.u. = |F|  Fx       Fy             Fz
:FHF001:   1.ATOM      0.000000000000      0.000000000000      0.000000000000      0.000000000000

     HELLMANN-FEYNMAN-FORCE IN mRy/a.u. = |F|  Fx       Fy             Fz
:FHF002:   2.ATOM      0.003384463060      0.000000000000      0.000000000000     -0.003384463060

     HELLMANN-FEYNMAN-FORCE IN mRy/a.u. = |F|  Fx       Fy             Fz
:FHF003:   3.ATOM      0.000000000000      0.000000000000      0.000000000000      0.000000000000

:FIT001: LUSE= 13 SIGMA OF V-XC FIT FOR ATOM  1  0.5073693E-02
:FIT001: LUSE= 13 SIGMA OF V-XC FIT FOR ATOM  1  0.6968325E-02
:FIT002: LUSE= 13 SIGMA OF V-XC FIT FOR ATOM  2  0.5007535E-03
:FIT002: LUSE= 13 SIGMA OF V-XC FIT FOR ATOM  2  0.5007535E-03
:FIT003: LUSE= 13 SIGMA OF V-XC FIT FOR ATOM  3  0.6968325E-02
:FIT003: LUSE= 13 SIGMA OF V-XC FIT FOR ATOM  3  0.5073693E-02
:DEN  : DENSITY INTEGRAL  =        -12616.92731441   (Ry)
       ELS_POTENTIAL_AT Z=0 and Z=0.5:   0.01996   0.01996
       ELS_POTENTIAL_AT Y=0 and Y=0.5:   0.00000   0.00000
:VZERO:v0,v0c,v0x  -0.68934   0.01996  -0.70929 v5,v5c,v5x  -0.61257   0.01996  -0.63253
:VZERY:v0,v0c,v0x  -0.71518   0.00000  -0.71518 v5,v5c,v5x  -0.71518   0.00000  -0.71518
:VZERX:v0,v0c,v0x  -1.16007  -0.38839  -0.77169 v5,v5c,v5x  -0.31210   0.39084  -0.70294
:LMAX-WF:   10   Non-Spherical LMAX:   4

          ATOMIC SPHERE DEPENDENT PARAMETERS FOR ATOM  Mnfloor   
:e__0001: OVERALL ENERGY PARAMETER IS    0.3000
          OVERALL BASIS SET ON ATOM IS LAPW
:E0_0001: E( 0)=    0.3000
             APW+lo
:E0_0001: E( 0)=   -5.5695   E(BOTTOM)=   -5.581   E(TOP)=   -5.558  2  3   157
             LOCAL ORBITAL
:E1_0001: E( 1)=    0.3000
             APW+lo
:E1_0001: E( 1)=   -3.2765   E(BOTTOM)=   -3.309   E(TOP)=   -3.244  1  2   145
             LOCAL ORBITAL
:E2_0001: E( 2)=    0.2046   E(BOTTOM)=   -0.009   E(TOP)=    0.419  0  1   121
             APW+lo

          ATOMIC SPHERE DEPENDENT PARAMETERS FOR ATOM  Te        
:e__0002: OVERALL ENERGY PARAMETER IS    0.3000
          OVERALL BASIS SET ON ATOM IS LAPW
:E1_0002: E( 1)=    0.3000
             APW+lo
:E1_0002: E( 1)=   -7.5400   E(BOTTOM)=   -7.544   E(TOP)=   -7.536  3  3   130
             LOCAL ORBITAL
:E2_0002: E( 2)=    0.3000
             APW+lo
:E2_0002: E( 2)=   -2.2154   E(BOTTOM)=   -2.270   E(TOP)=   -2.161  1  2   145
             LOCAL ORBITAL
:E0_0002: E( 0)=    0.7000
             APW+lo
:E0_0002: E( 0)=   -0.0721   E(BOTTOM)=   -1.081   E(TOP)=    0.937  4  5   205
             LOCAL ORBITAL

          ATOMIC SPHERE DEPENDENT PARAMETERS FOR ATOM  Mnmid     
:e__0003: OVERALL ENERGY PARAMETER IS    0.3000
          OVERALL BASIS SET ON ATOM IS LAPW
:E0_0003: E( 0)=    0.3000
             APW+lo
:E0_0003: E( 0)=   -5.1931   E(BOTTOM)=   -5.205   E(TOP)=   -5.181  2  3   155
             LOCAL ORBITAL
:E1_0003: E( 1)=    0.3000
             APW+lo
:E1_0003: E( 1)=   -2.9080   E(BOTTOM)=   -2.945   E(TOP)=   -2.871  1  2   148
             LOCAL ORBITAL
:E2_0003: E( 2)=    0.5415   E(BOTTOM)=    0.295   E(TOP)=    0.788  0  1   124
             APW+lo

       K=   0.00000   0.00000   0.00000            1
:RKM  : MATRIX SIZE   749LOs:  62  RKM= 9.88  WEIGHT= 1.00  PGR:    
       EIGENVALUES ARE:
:EIG00001:      -7.5395028   -7.5395028   -7.5395007   -7.5395007   -7.5392021
:EIG00006:      -7.5392004   -5.5674841   -5.1909442   -3.2706649   -3.2691010
:EIG00011:      -3.2691010   -2.9015164   -2.8998960   -2.8998960   -2.2040673
:EIG00016:      -2.2040673   -2.2038462   -2.2038462   -2.2038060   -2.2038060
:EIG00021:      -2.2038000   -2.2038000   -2.2027617   -2.2027033   -0.4481635
:EIG00026:      -0.3368280    0.0408429    0.1715205    0.1715205    0.2265321
:EIG00031:       0.2268731    0.2268731    0.3879391    0.3879391    0.4263510
:EIG00036:       0.4263510    0.4665012    0.5355128    0.5355128    0.5473631
:EIG00041:       0.6547027    0.6547027    0.6601651    0.6723658    0.8557342
:EIG00046:       0.8557342    1.0104488    1.0104488    1.0534088    1.0639927
 
:EIG00051:       1.1187336    1.1187336    1.1241568    1.1486116    1.1649223
:EIG00056:       1.1649223    1.2024419    1.6555925    1.6555925    1.6609218
:EIG00061:       1.7007726    1.7007726    1.7163148    1.7163148    1.8395529
:EIG00066:       1.8395529    1.8408783    1.8643256
       ********************************************************

:KPT   :      NUMBER OF K-POINTS:    192
:LMAX-WF:   10   Non-Spherical LMAX:   4

          ATOMIC SPHERE DEPENDENT PARAMETERS FOR ATOM  Mnfloor   
:e__0001: OVERALL ENERGY PARAMETER IS    0.3000
          OVERALL BASIS SET ON ATOM IS LAPW
:E0_0001: E( 0)=    0.3000
             APW+lo
:E0_0001: E( 0)=   -5.1931   E(BOTTOM)=   -5.205   E(TOP)=   -5.181  2  3   194
             LOCAL ORBITAL
:E1_0001: E( 1)=    0.3000
             APW+lo
:E1_0001: E( 1)=   -2.9080   E(BOTTOM)=   -2.945   E(TOP)=   -2.871  1  2   184
             LOCAL ORBITAL
:E2_0001: E( 2)=    0.5415   E(BOTTOM)=    0.295   E(TOP)=    0.788  0  1   122
             APW+lo

          ATOMIC SPHERE DEPENDENT PARAMETERS FOR ATOM  Te        
:e__0002: OVERALL ENERGY PARAMETER IS    0.3000
          OVERALL BASIS SET ON ATOM IS LAPW
:E1_0002: E( 1)=    0.3000
             APW+lo
:E1_0002: E( 1)=   -7.5400   E(BOTTOM)=   -7.544   E(TOP)=   -7.536  3  3   130
             LOCAL ORBITAL
:E2_0002: E( 2)=    0.3000
             APW+lo
:E2_0002: E( 2)=   -2.2154   E(BOTTOM)=   -2.270   E(TOP)=   -2.161  1  2   145
             LOCAL ORBITAL
:E0_0002: E( 0)=    0.7000
             APW+lo
:E0_0002: E( 0)=   -0.0721   E(BOTTOM)=   -1.081   E(TOP)=    0.937  4  5   205
             LOCAL ORBITAL

          ATOMIC SPHERE DEPENDENT PARAMETERS FOR ATOM  Mnmid     
:e__0003: OVERALL ENERGY PARAMETER IS    0.3000
          OVERALL BASIS SET ON ATOM IS LAPW
:E0_0003: E( 0)=    0.3000
             APW+lo
:E0_0003: E( 0)=   -5.5695   E(BOTTOM)=   -5.581   E(TOP)=   -5.558  2  3   115
             LOCAL ORBITAL
:E1_0003: E( 1)=    0.3000
             APW+lo
:E1_0003: E( 1)=   -3.2765   E(BOTTOM)=   -3.309   E(TOP)=   -3.244  1  2   111
             LOCAL ORBITAL
:E2_0003: E( 2)=    0.2046   E(BOTTOM)=   -0.009   E(TOP)=    0.419  0  1   123
             APW+lo

       K=   0.00000   0.00000   0.00000            1
:RKM  : MATRIX SIZE   749LOs:  62  RKM= 9.88  WEIGHT= 1.00  PGR:    
       EIGENVALUES ARE:
:EIG00001:      -7.5395028   -7.5395028   -7.5395007   -7.5395007   -7.5392021
:EIG00006:      -7.5392004   -5.5674840   -5.1909443   -3.2706648   -3.2691009
:EIG00011:      -3.2691009   -2.9015164   -2.8998961   -2.8998961   -2.2040673
:EIG00016:      -2.2040673   -2.2038462   -2.2038462   -2.2038060   -2.2038060
:EIG00021:      -2.2038000   -2.2038000   -2.2027617   -2.2027033   -0.4481637
:EIG00026:      -0.3368283    0.0408426    0.1715204    0.1715204    0.2265322
:EIG00031:       0.2268733    0.2268733    0.3879389    0.3879389    0.4263506
:EIG00036:       0.4263506    0.4665007    0.5355131    0.5355131    0.5473632
:EIG00041:       0.6547025    0.6547025    0.6601655    0.6723663    0.8557346
:EIG00046:       0.8557346    1.0104489    1.0104489    1.0534089    1.0639927
 
:EIG00051:       1.1187336    1.1187336    1.1241573    1.1486119    1.1649218
:EIG00056:       1.1649218    1.2024422    1.6555917    1.6555917    1.6609217
:EIG00061:       1.7007726    1.7007726    1.7163149    1.7163149    1.8395526
:EIG00066:       1.8395526    1.8408786    1.8643259
       ********************************************************

:KPT   :      NUMBER OF K-POINTS:    192
:GAP (global)   :    0.0    Ry =     0.0   eV (metal)
:GAP (this spin):    0.0    Ry =     0.0   eV (metal)
         Bandranges (emin - emax) and occupancy:
:BAN00027:  27    0.040843    0.158315  1.00000000
:BAN00028:  28    0.078323    0.177352  1.00000000
:BAN00029:  29    0.121488    0.182537  1.00000000
:BAN00030:  30    0.139018    0.227148  1.00000000
:BAN00031:  31    0.188308    0.229385  1.00000000
:BAN00032:  32    0.196042    0.247676  1.00000000
:BAN00033:  33    0.232720    0.387939  1.00000000
:BAN00034:  34    0.250028    0.387939  1.00000000
:BAN00035:  35    0.258656    0.436081  1.00000000
:BAN00036:  36    0.333203    0.491049  0.99999541
:BAN00037:  37    0.336775    0.491049  1.00000073
:BAN00038:  38    0.491614    0.539158  0.00000000
:BAN00039:  39    0.526873    0.572371  0.00000000
:BAN00040:  40    0.526873    0.577308  0.00000000
:BAN00041:  41    0.577967    0.654703  0.00000000
:BAN00042:  42    0.594564    0.667849  0.00000000
        Energy to separate low and high energystates:   -0.00916


:NOE  : NUMBER OF ELECTRONS          =  74.000

:FER  : F E R M I - ENERGY(TETRAH.M.)=   0.4895916533
:GMA  : POTENTIAL AND CHARGE CUT-OFF  12.00 Ry**.5
 
 
 
 
:POS001: ATOM   -1 X,Y,Z = 0.00000 0.00000 0.00000  MULT= 1  ZZ= 25.000  Mnfloor
 
       LMMAX  7
       LM=   0 0  2 0  4 0  4 3  6 0  6 3  6 6
 
:CHA001: TOTAL VALENCE CHARGE INSIDE SPHERE   1 =   8.9899    (RMT=  2.5000 )
:PCS001: PARTIAL CHARGES SPHERE =  1 S,P,D,F,PZ,PXY, D-Z2,D-XY,X2Y2,D-XZ,YZ
:QTL001: 1.1770 3.1616 4.6412 0.0089 1.0568 2.1045 0.0000 0.9129 1.8561 1.8722 0.0000 0.0000
        Q-s-low E-s-low   Q-p-low E-p-low   Q-d-low E-d-low   Q-f-low E-f-low
:EPL001:  1.0200 -5.4637    3.0112 -3.2533    0.0191 -0.3591    0.0011 -0.5040
        Q-s-hi  E-s-hi    Q-p-hi  E-p-hi    Q-d-hi  E-d-hi    Q-f-hi  E-f-hi
:EPH001:  0.1570  0.1466    0.1503  0.2506    4.6220  0.2358    0.0076  0.3081
:VZZ001: EFG INSIDE SPHERE   1 =    -0.047102      UP TO R =   2.50000
 
 
 
 
:POS002: ATOM   -2 X,Y,Z = 0.33333 0.66667 0.75000  MULT= 2  ZZ= 52.000  Te
 
       LMMAX 12
       LM=   0 0  1 0  2 0  3 0  3 3  4 0  4 3  5 0  5 3  6 0  6 3  6 6
 
:CHA002: TOTAL VALENCE CHARGE INSIDE SPHERE   2 =   9.8590    (RMT=  2.5000 )
:PCS002: PARTIAL CHARGES SPHERE =  2 S,P,D,F,PZ,PXY, D-Z2,D-XY,X2Y2,D-XZ,YZ
:QTL002: 0.7180 4.1284 5.0063 0.0053 1.3823 2.7460 0.0000 0.9999 2.0027 2.0038 0.0000 0.0000
        Q-s-low E-s-low   Q-p-low E-p-low   Q-d-low E-d-low   Q-f-low E-f-low
:EPL002:  0.6714 -0.3532    3.0020 -7.5338    4.9810 -2.2035    0.0000 10.0000
        Q-s-hi  E-s-hi    Q-p-hi  E-p-hi    Q-d-hi  E-d-hi    Q-f-hi  E-f-hi
:EPH002:  0.0467  0.2498    1.1264  0.2602    0.0253  0.2754    0.0049  0.2696
:VZZ002: EFG INSIDE SPHERE   2 =    -2.735494      UP TO R =   2.50000
 
 
 
 
:POS003: ATOM   -3 X,Y,Z = 0.00000 0.00000 0.50000  MULT= 1  ZZ= 25.000  Mnmid
 
       LMMAX  7
       LM=   0 0  2 0  4 0  4 3  6 0  6 3  6 6
 
:CHA003: TOTAL VALENCE CHARGE INSIDE SPHERE   3 =   4.7786    (RMT=  2.5000 )
:PCS003: PARTIAL CHARGES SPHERE =  3 S,P,D,F,PZ,PXY, D-Z2,D-XY,X2Y2,D-XZ,YZ
:QTL003: 1.1258 3.1251 0.5173 0.0087 1.0438 2.0814 0.0000 0.0545 0.1824 0.2804 0.0000 0.0000
        Q-s-low E-s-low   Q-p-low E-p-low   Q-d-low E-d-low   Q-f-low E-f-low
:EPL003:  1.0149 -5.1179    3.0071 -2.8884    0.0109 -0.3744    0.0011 -0.5086
        Q-s-hi  E-s-hi    Q-p-hi  E-p-hi    Q-d-hi  E-d-hi    Q-f-hi  E-f-hi
:EPH003:  0.1109  0.1736    0.1179  0.2593    0.5065  0.3362    0.0075  0.3108
:VZZ003: EFG INSIDE SPHERE   3 =    -0.336849      UP TO R =   2.50000
 
:CHA  : TOTAL VALENCE CHARGE INSIDE UNIT CELL =      36.999997
 
:SUM  : SUM OF EIGENVALUES =         -94.575305321
 
:GAP (global)   :    0.0    Ry =     0.0   eV (metal)
:GAP (this spin):    0.0    Ry =     0.0   eV (metal)
         Bandranges (emin - emax) and occupancy:
:BAN00027:  27    0.040843    0.158315  1.00000000
:BAN00028:  28    0.078323    0.177352  1.00000000
:BAN00029:  29    0.121487    0.182537  1.00000000
:BAN00030:  30    0.139018    0.227149  1.00000000
:BAN00031:  31    0.188308    0.229386  1.00000000
:BAN00032:  32    0.196042    0.247675  1.00000000
:BAN00033:  33    0.232720    0.387939  1.00000000
:BAN00034:  34    0.250028    0.387939  1.00000000
:BAN00035:  35    0.258657    0.436080  1.00000000
:BAN00036:  36    0.333203    0.491049  0.99999629
:BAN00037:  37    0.336775    0.491049  1.00000066
:BAN00038:  38    0.491614    0.539158  0.00000000
:BAN00039:  39    0.526873    0.572371  0.00000000
:BAN00040:  40    0.526873    0.577309  0.00000000
:BAN00041:  41    0.577967    0.654702  0.00000000
:BAN00042:  42    0.594564    0.667849  0.00000000
        Energy to separate low and high energystates:   -0.00916


:NOE  : NUMBER OF ELECTRONS          =  74.000

:FER  : F E R M I - ENERGY(TETRAH.M.)=   0.4895916533
:GMA  : POTENTIAL AND CHARGE CUT-OFF  12.00 Ry**.5
 
 
 
 
:POS001: ATOM   -1 X,Y,Z = 0.00000 0.00000 0.00000  MULT= 1  ZZ= 25.000  Mnfloor
 
       LMMAX  7
       LM=   0 0  2 0  4 0  4 3  6 0  6 3  6 6
 
:CHA001: TOTAL VALENCE CHARGE INSIDE SPHERE   1 =   4.7786    (RMT=  2.5000 )
:PCS001: PARTIAL CHARGES SPHERE =  1 S,P,D,F,PZ,PXY, D-Z2,D-XY,X2Y2,D-XZ,YZ
:QTL001: 1.1258 3.1252 0.5174 0.0087 1.0438 2.0813 0.0000 0.0545 0.1824 0.2802 0.0000 0.0000
        Q-s-low E-s-low   Q-p-low E-p-low   Q-d-low E-d-low   Q-f-low E-f-low
:EPL001:  1.0148 -5.1179    3.0072 -2.8883    0.0109 -0.3742    0.0011 -0.5085
        Q-s-hi  E-s-hi    Q-p-hi  E-p-hi    Q-d-hi  E-d-hi    Q-f-hi  E-f-hi
:EPH001:  0.1110  0.1736    0.1180  0.2593    0.5064  0.3362    0.0075  0.3108
:VZZ001: EFG INSIDE SPHERE   1 =    -0.336837      UP TO R =   2.50000
 
 
 
 
:POS002: ATOM   -2 X,Y,Z = 0.33333 0.66667 0.75000  MULT= 2  ZZ= 52.000  Te
 
       LMMAX 12
       LM=   0 0  1 0  2 0  3 0  3 3  4 0  4 3  5 0  5 3  6 0  6 3  6 6
 
:CHA002: TOTAL VALENCE CHARGE INSIDE SPHERE   2 =   9.8589    (RMT=  2.5000 )
:PCS002: PARTIAL CHARGES SPHERE =  2 S,P,D,F,PZ,PXY, D-Z2,D-XY,X2Y2,D-XZ,YZ
:QTL002: 0.7179 4.1282 5.0064 0.0053 1.3824 2.7459 0.0000 0.9999 2.0027 2.0037 0.0000 0.0000
        Q-s-low E-s-low   Q-p-low E-p-low   Q-d-low E-d-low   Q-f-low E-f-low
:EPL002:  0.6714 -0.3532    3.0020 -7.5338    4.9810 -2.2035    0.0000 10.0000
        Q-s-hi  E-s-hi    Q-p-hi  E-p-hi    Q-d-hi  E-d-hi    Q-f-hi  E-f-hi
:EPH002:  0.0468  0.2499    1.1264  0.2602    0.0253  0.2754    0.0049  0.2696
:VZZ002: EFG INSIDE SPHERE   2 =    -2.735431      UP TO R =   2.50000
 
 
 
 
:POS003: ATOM   -3 X,Y,Z = 0.00000 0.00000 0.50000  MULT= 1  ZZ= 25.000  Mnmid
 
       LMMAX  7
       LM=   0 0  2 0  4 0  4 3  6 0  6 3  6 6
 
:CHA003: TOTAL VALENCE CHARGE INSIDE SPHERE   3 =   8.9900    (RMT=  2.5000 )
:PCS003: PARTIAL CHARGES SPHERE =  3 S,P,D,F,PZ,PXY, D-Z2,D-XY,X2Y2,D-XZ,YZ
:QTL003: 1.1771 3.1614 4.6412 0.0089 1.0569 2.1045 0.0000 0.9131 1.8561 1.8721 0.0000 0.0000
        Q-s-low E-s-low   Q-p-low E-p-low   Q-d-low E-d-low   Q-f-low E-f-low
:EPL003:  1.0201 -5.4638    3.0112 -3.2533    0.0193 -0.3592    0.0011 -0.5041
        Q-s-hi  E-s-hi    Q-p-hi  E-p-hi    Q-d-hi  E-d-hi    Q-f-hi  E-f-hi
:EPH003:  0.1571  0.1466    0.1501  0.2506    4.6220  0.2358    0.0076  0.3081
:VZZ003: EFG INSIDE SPHERE   3 =    -0.047098      UP TO R =   2.50000
 
:CHA  : TOTAL VALENCE CHARGE INSIDE UNIT CELL =      36.999997
 
:SUM  : SUM OF EIGENVALUES =         -94.575305866
 

        1.ATOM      Mnfloor               4 CORE STATES
:1S 001: 1S                -471.523273308 Ry
:2S 001: 2S                 -53.787775926 Ry
:2PP001: 2P*                -45.921685703 Ry
:2P 001: 2P                 -45.156591136 Ry

        2.ATOM      Te                   10 CORE STATES
       CORE-FORCE in mRy/a.u. = |F|      Fx             Fy             Fz
:FCO002:   2.ATOM      0.248045293026      0.000000000000      0.000000000000     -0.248045293026

:1S 002: 1S               -2322.193745853 Ry
:2S 002: 2S                -355.256073484 Ry
:2PP002: 2P*               -332.780170174 Ry
:2P 002: 2P                -312.605534675 Ry
:3S 002: 3S                 -70.006772671 Ry
:3PP002: 3P*                -60.768678477 Ry
:3P 002: 3P                 -57.008594992 Ry
:3DD002: 3D*                -40.719959963 Ry
:3D 002: 3D                 -39.933762376 Ry
:4S 002: 4S                 -11.211114900 Ry

        3.ATOM      Mnmid                 4 CORE STATES
:1S 003: 1S                -471.524129343 Ry
:2S 003: 2S                 -53.636474217 Ry
:2PP003: 2P*                -45.808718858 Ry
:2P 003: 2P                 -45.040506655 Ry

        1.ATOM      Mnfloor               4 CORE STATES
:1S 001: 1S                -471.524129428 Ry
:2S 001: 2S                 -53.636474302 Ry
:2PP001: 2P*                -45.808718944 Ry
:2P 001: 2P                 -45.040506740 Ry

        2.ATOM      Te                   10 CORE STATES
       CORE-FORCE in mRy/a.u. = |F|      Fx             Fy             Fz
:FCO002:   2.ATOM      0.251950428505      0.000000000000      0.000000000000      0.251950428505

:1S 002: 1S               -2322.193745853 Ry
:2S 002: 2S                -355.256073484 Ry
:2PP002: 2P*               -332.780170174 Ry
:2P 002: 2P                -312.605534675 Ry
:3S 002: 3S                 -70.006772671 Ry
:3PP002: 3P*                -60.768678477 Ry
:3P 002: 3P                 -57.008594992 Ry
:3DD002: 3D*                -40.719959963 Ry
:3D 002: 3D                 -39.933762376 Ry
:4S 002: 4S                 -11.211114900 Ry

        3.ATOM      Mnmid                 4 CORE STATES
:1S 003: 1S                -471.523273223 Ry
:2S 003: 2S                 -53.787775841 Ry
:2PP003: 2P*                -45.921685617 Ry
:2P 003: 2P                 -45.156591050 Ry
:CINT001 Core Integral Atom   1 Up    5.000000 Dn   5.000000 Total  10.000000
:CINT002 Core Integral Atom   2 Up   14.999984 Dn  14.999984 Total  29.999967
:CINT003 Core Integral Atom   3 Up    5.000000 Dn   5.000000 Total  10.000000

       DENSITY AT NUCLEUS
        JATOM        VALENCE       SEMI-CORE          CORE           TOTAL
:RTO001:   1      162.806175        0.000000    13171.091488    13333.897663
:RTO002:   2      159.894525        0.000000   322100.705496   322260.600022
:RTO003:   3      162.806168        0.000000    13171.091488    13333.897656

       HYPERFINE FIELDS FOR THOMSON RADIUS
:HFF001:          789.969           0.000       -1001.815        -211.847 (KGAUSS)
:HFF002:            0.004           0.000           0.000           0.004 (KGAUSS)
:HFF003:         -789.966           0.000        1001.815         211.849 (KGAUSS)
     
       CHARGES OF NEW CHARGE DENSITY
:NTO   : INTERSTITIAL     UP =     3.513402 DN =     3.513402 TOT =     7.026803
:NPC   : INTERSTITIAL     UP =     8.004027 DN =     8.003981 TOT =    16.008008
:NTO001: CHARGE SPHERE  1 UP =    13.989960 DN =     9.778572 TOT =    23.768532
:NTO002: CHARGE SPHERE  2 UP =    24.859013 DN =    24.859014 TOT =    49.718027
:NTO003: CHARGE SPHERE  3 UP =     9.778574 DN =    13.989960 TOT =    23.768534

:NEC01: NUCLEAR AND ELECTRONIC CHARGE    154.00000   153.99992
     
       CHARGES OF OLD CHARGE DENSITY
:OTO   : INTERSTITIAL     UP =     3.513982 DN =     3.513982 TOT =     7.027964
:OPC   : INTERSTITIAL     UP =     9.578641 DN =     9.578641 TOT =    19.157283
:OTO001: CHARGE SPHERE  1 UP =    14.283704 DN =     9.469002 TOT =    23.752706
:OTO002: CHARGE SPHERE  2 UP =    24.866966 DN =    24.866966 TOT =    49.733933
:OTO003: CHARGE SPHERE  3 UP =     9.469002 DN =    14.283704 TOT =    23.752706

:NEC02: NUCLEAR AND ELECTRONIC CHARGE    154.00000   154.00124
     
       CONVERGENCE TEST
:DTO001: DIFFERENCE SPHERE  1 UP =  0.2505425 DN =  0.3343014 TOT =  0.5848438
:DTO002: DIFFERENCE SPHERE  2 UP =  0.1012227 DN =  0.1012227 TOT =  0.2024454
:DTO003: DIFFERENCE SPHERE  3 UP =  0.3343023 DN =  0.2505420 TOT =  0.5848444

:DIS  :  CHARGE DISTANCE       ( 0.3343023 for atom    3 spin 1)      0.7872895
 
******************************************************
* MULTISECANT MIXING VER9 RELEASE 9.4.1              *
* Standard Mode with controls                        *
* Fixed density scale                                *
* Regularization       1.000E-04                     *
* Trust Upper Limit    5.000E+00                     *
* Max Number of Memory Steps    8                    *
******************************************************
 
:PWTMP   3.7821E+02  5.0000E+02  6.4001E+02
:PLANE:  PW TOTAL      5.9960 DISTAN   2.00E+00  3.33E+01 %
:CHARG:  CLM/ATOM    266.9195 DISTAN   2.18E-01  8.17E-02 %
 
Step History
        DMIX         DMIXT        Red     Pred      Trust     Lambda    MagRel    MagAbs     Beta
  1   3.5000E-02   3.5000E-02 -1.00E+00  1.00E+00 -1.00E+01  1.00E+00  3.50E-02  3.50E-02  1.00E+00
:INFO :  Note, Pratt in use
:TRUST:  Step 3.75E-02  Charge 5.00E-02 (e) CTO  2.50E-01 (e) PW  3.50E-01 (e)
:DIRM :  MEMORY  0/ 8 SCALE   1.000
:MIX  :   PRATT  REGULARIZATION:  1.00E-04 GREED: 0.02500                  
     
       CHARGES OF MIXED CHARGE DENSITY
:CTO   : INTERSTITIAL     UP =     3.513363 DN =     3.513363 TOT =     7.026726
:CPC   : INTERSTITIAL     UP =     9.537628 DN =     9.537627 TOT =    19.075254
:CTO001: CHARGE SPHERE  1 UP =    14.276360 DN =     9.476741 TOT =    23.753102
:CTO002: CHARGE SPHERE  2 UP =    24.866768 DN =    24.866768 TOT =    49.733535
:CTO003: CHARGE SPHERE  3 UP =     9.476741 DN =    14.276360 TOT =    23.753102

       SPIN MAGNETIC MOMENTS OF MIXED CHARGE DENSITY
:MMINT:  MAGNETIC MOMENT IN INTERSTITIAL  =    0.00000
:MMI001: MAGNETIC MOMENT IN SPHERE   1    =    4.79962
:MMI002: MAGNETIC MOMENT IN SPHERE   2    =   -0.00000
:MMI003: MAGNETIC MOMENT IN SPHERE   3    =   -4.79962
:MMTOT:  SPIN MAGNETIC MOMENT IN CELL     =    0.00000

:NEC03: NUCLEAR AND ELECTRONIC CHARGE    154.00000   154.00000

PW CHANGE     H    K    L      Current       Change    Residue
:PUP001:      0    0    0  2.03917197E-02 -6.143E-05 -2.457E-03
:PUP002:      0    0   -1  4.47911886E-03 -5.578E-05 -2.231E-03
:PUP003:     -1    0    0 -3.17699784E-03  2.830E-05  1.132E-03
:PUP004:      0    0   -2 -6.79304317E-03  3.820E-05  1.528E-03
:PUP005:     -1    0   -1  3.66363366E-02 -2.685E-04 -1.074E-02
:PUP006:     -1    0    1 -2.03891930E-02  5.263E-05  2.105E-03
:PUP007:     -1    0   -2  1.70293106E-02 -1.700E-04 -6.798E-03
:PUP008:     -1    0    2  1.70371276E-02 -1.621E-04 -6.486E-03
:PUP009:      0    0   -3  1.26112124E-03 -2.152E-05 -8.607E-04
:PUP010:     -2    1    0  1.70189408E-02 -2.198E-04 -8.793E-03
:PUP011:     -2    1   -1  5.55582388E-03 -1.242E-04 -4.968E-03
:PUP012:     -1    0   -3 -4.81776208E-03  6.713E-05  2.685E-03
  
:PDN001:      0    0    0  2.03917175E-02 -6.144E-05 -2.457E-03
:PDN002:      0    0   -1 -4.47911880E-03  5.578E-05  2.231E-03
:PDN003:     -1    0    0 -3.17699216E-03  2.830E-05  1.132E-03
:PDN004:      0    0   -2 -6.79303960E-03  3.820E-05  1.528E-03
:PDN005:     -1    0   -1  2.03891840E-02 -5.264E-05 -2.105E-03
:PDN006:     -1    0    1 -3.66363289E-02  2.685E-04  1.074E-02
:PDN007:     -1    0   -2  1.70371256E-02 -1.621E-04 -6.486E-03
:PDN008:     -1    0    2  1.70293065E-02 -1.700E-04 -6.798E-03
:PDN009:      0    0   -3 -1.26112178E-03  2.152E-05  8.607E-04
:PDN010:     -2    1    0  1.70189347E-02 -2.198E-04 -8.793E-03
:PDN011:     -2    1   -1 -5.55582550E-03  1.242E-04  4.968E-03
:PDN012:     -1    0   -3 -9.16980250E-03  1.814E-04  7.257E-03

:ENE  : ********** TOTAL ENERGY IN Ry =       -31822.01451926

       TOTAL FORCE IN mRy/a.u. = |F|     Fx             Fy             Fz     with/without FOR in case.in2
:FOR001:   1.ATOM          0.000          0.000          0.000          0.000 partial forces
:FOR002:   2.ATOM          0.001          0.000          0.000         -0.001 partial forces
:FOR003:   3.ATOM          0.000          0.000          0.000          0.000 partial forces
       TOTAL FORCE WITH RESPECT TO GLOBAL CARTESIAN COORDINATES:
:FCA001:   1.ATOM                         0.000          0.000          0.000 partial forces
:FCA002:   2.ATOM                         0.000          0.000         -0.001 partial forces
:FCA003:   3.ATOM                         0.000          0.000          0.000 partial forces
       TOTAL FORCE WITH RESPECT TO THE GLOBAL COORDINATE SYSTEM:
:FGL001:   1.ATOM                 0.000000000     0.000000000     0.000000000 partial forces
:FGL002:   2.ATOM                 0.000000000     0.000000000    -0.001431895 partial forces
:FGL003:   3.ATOM                 0.000000000     0.000000000     0.000000000 partial forces
 Flat Integration
 New Mode for Coulomb Integral
 Consistent 3/8+Simpson combinations
 Extension of core to zero
 LDM version in phi
 Fifth-order quadrature in outwin


            ---------
:ITE002:  2. ITERATION
            ---------

:NATO :    3 INDEPENDENT AND    4 TOTAL ATOMS IN UNITCELL
       SUBSTANCE: Title                                                       

       LATTICE                      = H   
:POT  : POTENTIAL OPTION EX_PBE EC_PBE VX_PBE VC_PBE
:LAT  : LATTICE CONSTANTS=  7.78058  7.78058 12.20773
:VOL  : UNIT CELL VOLUME =     640.01424
       MODE OF CALCULATION IS       = RELA
       SPINPOLARIZED CALCULATION
:IFFT  : FFT-parameters:   60   60   96 Factor: 2.00
       ATOMNUMBER=  1 Mnfloor    VCOUL-ZERO =  0.42363E+00
:EFG001:                        EFG         =     0.01068   *10**21  V / m**2
                               V20  TOT/SRF=     0.00925     0.02820
                               V22  TOT/SRF=     0.00000     0.00000
                               V22M TOT/SRF=     0.00000     0.00000
                               V21  TOT/SRF=     0.00000     0.00000
                               V21M TOT/SRF=     0.00000     0.00000

             -0.00534    0.00000    0.00000       -0.00534    0.00000    0.00000
              0.00000   -0.00534    0.00000        0.00000   -0.00534    0.00000
              0.00000    0.00000    0.01068        0.00000    0.00000    0.01068

         MAIN DIRECTIONS OF THE EFG   1.0000  0.0000  0.0000
                                      0.0000  1.0000  0.0000
                                      0.0000  0.0000  1.0000
:ANG001:  ANGLE WITH OLD X-AXIS =         0.0

:ETA001:                         ASYMM. ETA =     0.00000


       ATOMNUMBER=  2 Te         VCOUL-ZERO =  0.32213E+00
:EFG002:                        EFG         =    -0.14225   *10**21  V / m**2
                               V20  TOT/SRF=    -0.12319    -0.00792
                               V22  TOT/SRF=     0.00000     0.00000
                               V22M TOT/SRF=     0.00000     0.00000
                               V21  TOT/SRF=     0.00000     0.00000
                               V21M TOT/SRF=     0.00000     0.00000

              0.07112    0.00000    0.00000        0.07112    0.00000    0.00000
              0.00000    0.07112    0.00000        0.00000    0.07112    0.00000
              0.00000    0.00000   -0.14225        0.00000    0.00000   -0.14225

         MAIN DIRECTIONS OF THE EFG   1.0000  0.0000  0.0000
                                      0.0000  1.0000  0.0000
                                      0.0000  0.0000  1.0000
:ANG002:  ANGLE WITH OLD X-AXIS =         0.0

:ETA002:                         ASYMM. ETA =     0.00000


       ATOMNUMBER=  3 Mnmid      VCOUL-ZERO =  0.42363E+00
:EFG003:                        EFG         =     0.01068   *10**21  V / m**2
                               V20  TOT/SRF=     0.00925     0.02820
                               V22  TOT/SRF=     0.00000     0.00000
                               V22M TOT/SRF=     0.00000     0.00000
                               V21  TOT/SRF=     0.00000     0.00000
                               V21M TOT/SRF=     0.00000     0.00000

             -0.00534    0.00000    0.00000       -0.00534    0.00000    0.00000
              0.00000   -0.00534    0.00000        0.00000   -0.00534    0.00000
              0.00000    0.00000    0.01068        0.00000    0.00000    0.01068

         MAIN DIRECTIONS OF THE EFG   1.0000  0.0000  0.0000
                                      0.0000  1.0000  0.0000
                                      0.0000  0.0000  1.0000
:ANG003:  ANGLE WITH OLD X-AXIS =         0.0

:ETA003:                         ASYMM. ETA =     0.00000


     HELLMANN-FEYNMAN-FORCE IN mRy/a.u. = |F|  Fx       Fy             Fz
:FHF001:   1.ATOM      0.000000000000      0.000000000000      0.000000000000      0.000000000000

     HELLMANN-FEYNMAN-FORCE IN mRy/a.u. = |F|  Fx       Fy             Fz
:FHF002:   2.ATOM      0.000128374210      0.000000000000      0.000000000000     -0.000128374210

     HELLMANN-FEYNMAN-FORCE IN mRy/a.u. = |F|  Fx       Fy             Fz
:FHF003:   3.ATOM      0.000000000000      0.000000000000      0.000000000000      0.000000000000

:FIT001: LUSE= 13 SIGMA OF V-XC FIT FOR ATOM  1  0.5151722E-02
:FIT001: LUSE= 13 SIGMA OF V-XC FIT FOR ATOM  1  0.7381181E-02
:FIT002: LUSE= 13 SIGMA OF V-XC FIT FOR ATOM  2  0.4907704E-03
:FIT002: LUSE= 13 SIGMA OF V-XC FIT FOR ATOM  2  0.4907703E-03
:FIT003: LUSE= 13 SIGMA OF V-XC FIT FOR ATOM  3  0.7381180E-02
:FIT003: LUSE= 13 SIGMA OF V-XC FIT FOR ATOM  3  0.5151721E-02
:DEN  : DENSITY INTEGRAL  =        -12616.88672568   (Ry)
       ELS_POTENTIAL_AT Z=0 and Z=0.5:   0.01852   0.01852
       ELS_POTENTIAL_AT Y=0 and Y=0.5:   0.00000   0.00000
:VZERO:v0,v0c,v0x  -0.68982   0.01852  -0.70834 v5,v5c,v5x  -0.61333   0.01852  -0.63185
:VZERY:v0,v0c,v0x  -0.71479   0.00000  -0.71479 v5,v5c,v5x  -0.71479   0.00000  -0.71479
:VZERX:v0,v0c,v0x  -1.16320  -0.39221  -0.77099 v5,v5c,v5x  -0.31220   0.39062  -0.70281
:LMAX-WF:   10   Non-Spherical LMAX:   4

          ATOMIC SPHERE DEPENDENT PARAMETERS FOR ATOM  Mnfloor   
:e__0001: OVERALL ENERGY PARAMETER IS    0.2931
          OVERALL BASIS SET ON ATOM IS LAPW
:E0_0001: E( 0)=    0.2931
             APW+lo
:E0_0001: E( 0)=   -5.5662   E(BOTTOM)=   -5.577   E(TOP)=   -5.555  2  3   151
             LOCAL ORBITAL
:E1_0001: E( 1)=    0.2931
             APW+lo
:E1_0001: E( 1)=   -3.2734   E(BOTTOM)=   -3.306   E(TOP)=   -3.241  1  2   153
             LOCAL ORBITAL
:E2_0001: E( 2)=    0.2073   E(BOTTOM)=   -0.007   E(TOP)=    0.422  0  1   129
             APW+lo

          ATOMIC SPHERE DEPENDENT PARAMETERS FOR ATOM  Te        
:e__0002: OVERALL ENERGY PARAMETER IS    0.2931
          OVERALL BASIS SET ON ATOM IS LAPW
:E1_0002: E( 1)=    0.2931
             APW+lo
:E1_0002: E( 1)=   -7.5412   E(BOTTOM)=   -7.545   E(TOP)=   -7.537  3  3   129
             LOCAL ORBITAL
:E2_0002: E( 2)=    0.2931
             APW+lo
:E2_0002: E( 2)=   -2.2163   E(BOTTOM)=   -2.271   E(TOP)=   -2.162  1  2   151
             LOCAL ORBITAL
:E0_0002: E( 0)=    0.6931
             APW+lo
:E0_0002: E( 0)=   -0.0722   E(BOTTOM)=   -1.081   E(TOP)=    0.937  4  5   200
             LOCAL ORBITAL

          ATOMIC SPHERE DEPENDENT PARAMETERS FOR ATOM  Mnmid     
:e__0003: OVERALL ENERGY PARAMETER IS    0.2931
          OVERALL BASIS SET ON ATOM IS LAPW
:E0_0003: E( 0)=    0.2931
             APW+lo
:E0_0003: E( 0)=   -5.1911   E(BOTTOM)=   -5.203   E(TOP)=   -5.179  2  3   154
             LOCAL ORBITAL
:E1_0003: E( 1)=    0.2931
             APW+lo
:E1_0003: E( 1)=   -2.9061   E(BOTTOM)=   -2.943   E(TOP)=   -2.869  1  2   152
             LOCAL ORBITAL
:E2_0003: E( 2)=    0.5431   E(BOTTOM)=    0.297   E(TOP)=    0.789  0  1   121
             APW+lo

       K=   0.00000   0.00000   0.00000            1
:RKM  : MATRIX SIZE   749LOs:  62  RKM= 9.88  WEIGHT= 1.00  PGR:    
       EIGENVALUES ARE:
:EIG00001:      -7.5406510   -7.5406510   -7.5406489   -7.5406489   -7.5403330
:EIG00006:      -7.5403313   -5.5642355   -5.1888920   -3.2674674   -3.2659912
:EIG00011:      -3.2659912   -2.8995201   -2.8979589   -2.8979589   -2.2049788
:EIG00016:      -2.2049788   -2.2047617   -2.2047617   -2.2047333   -2.2047333
:EIG00021:      -2.2047309   -2.2047309   -2.2036860   -2.2036277   -0.4480759
:EIG00026:      -0.3368010    0.0411994    0.1735561    0.1735561    0.2289094
:EIG00031:       0.2294027    0.2294027    0.3888841    0.3888841    0.4264803
:EIG00036:       0.4264803    0.4665268    0.5369938    0.5369938    0.5490234
:EIG00041:       0.6558174    0.6558174    0.6607174    0.6727521    0.8560883
:EIG00046:       0.8560883    1.0108688    1.0108688    1.0538809    1.0647983
 
:EIG00051:       1.1194188    1.1194188    1.1244470    1.1491289    1.1653845
:EIG00056:       1.1653845    1.2026515    1.6556361    1.6556361    1.6612444
:EIG00061:       1.7009736    1.7009736    1.7167611    1.7167611    1.8400320
:EIG00066:       1.8400320    1.8411820    1.8649143
       ********************************************************

:KPT   :      NUMBER OF K-POINTS:    192
:LMAX-WF:   10   Non-Spherical LMAX:   4

          ATOMIC SPHERE DEPENDENT PARAMETERS FOR ATOM  Mnfloor   
:e__0001: OVERALL ENERGY PARAMETER IS    0.2931
          OVERALL BASIS SET ON ATOM IS LAPW
:E0_0001: E( 0)=    0.2931
             APW+lo
:E0_0001: E( 0)=   -5.1911   E(BOTTOM)=   -5.203   E(TOP)=   -5.179  2  3   192
             LOCAL ORBITAL
:E1_0001: E( 1)=    0.2931
             APW+lo
:E1_0001: E( 1)=   -2.9061   E(BOTTOM)=   -2.943   E(TOP)=   -2.869  1  2   186
             LOCAL ORBITAL
:E2_0001: E( 2)=    0.5431   E(BOTTOM)=    0.297   E(TOP)=    0.789  0  1   124
             APW+lo

          ATOMIC SPHERE DEPENDENT PARAMETERS FOR ATOM  Te        
:e__0002: OVERALL ENERGY PARAMETER IS    0.2931
          OVERALL BASIS SET ON ATOM IS LAPW
:E1_0002: E( 1)=    0.2931
             APW+lo
:E1_0002: E( 1)=   -7.5412   E(BOTTOM)=   -7.545   E(TOP)=   -7.537  3  3   129
             LOCAL ORBITAL
:E2_0002: E( 2)=    0.2931
             APW+lo
:E2_0002: E( 2)=   -2.2163   E(BOTTOM)=   -2.271   E(TOP)=   -2.162  1  2   151
             LOCAL ORBITAL
:E0_0002: E( 0)=    0.6931
             APW+lo
:E0_0002: E( 0)=   -0.0722   E(BOTTOM)=   -1.081   E(TOP)=    0.937  4  5   200
             LOCAL ORBITAL

          ATOMIC SPHERE DEPENDENT PARAMETERS FOR ATOM  Mnmid     
:e__0003: OVERALL ENERGY PARAMETER IS    0.2931
          OVERALL BASIS SET ON ATOM IS LAPW
:E0_0003: E( 0)=    0.2931
             APW+lo
:E0_0003: E( 0)=   -5.5662   E(BOTTOM)=   -5.577   E(TOP)=   -5.555  2  3   111
             LOCAL ORBITAL
:E1_0003: E( 1)=    0.2931
             APW+lo
:E1_0003: E( 1)=   -3.2734   E(BOTTOM)=   -3.306   E(TOP)=   -3.241  1  2   115
             LOCAL ORBITAL
:E2_0003: E( 2)=    0.2073   E(BOTTOM)=   -0.007   E(TOP)=    0.422  0  1   127
             APW+lo

       K=   0.00000   0.00000   0.00000            1
:RKM  : MATRIX SIZE   749LOs:  62  RKM= 9.88  WEIGHT= 1.00  PGR:    
       EIGENVALUES ARE:
:EIG00001:      -7.5406510   -7.5406510   -7.5406489   -7.5406489   -7.5403330
:EIG00006:      -7.5403313   -5.5642355   -5.1888921   -3.2674673   -3.2659911
:EIG00011:      -3.2659911   -2.8995201   -2.8979589   -2.8979589   -2.2049788
:EIG00016:      -2.2049788   -2.2047617   -2.2047617   -2.2047333   -2.2047333
:EIG00021:      -2.2047309   -2.2047309   -2.2036860   -2.2036277   -0.4480759
:EIG00026:      -0.3368011    0.0411994    0.1735561    0.1735561    0.2289094
:EIG00031:       0.2294027    0.2294027    0.3888841    0.3888841    0.4264803
:EIG00036:       0.4264803    0.4665268    0.5369938    0.5369938    0.5490234
:EIG00041:       0.6558174    0.6558174    0.6607174    0.6727521    0.8560883
:EIG00046:       0.8560883    1.0108688    1.0108688    1.0538809    1.0647983
 
:EIG00051:       1.1194188    1.1194188    1.1244470    1.1491289    1.1653845
:EIG00056:       1.1653845    1.2026515    1.6556361    1.6556361    1.6612444
:EIG00061:       1.7009736    1.7009736    1.7167611    1.7167611    1.8400320
:EIG00066:       1.8400320    1.8411820    1.8649143
       ********************************************************

:KPT   :      NUMBER OF K-POINTS:    192
:GAP (global)   :    0.0    Ry =     0.0   eV (metal)
:GAP (this spin):    0.0    Ry =     0.0   eV (metal)
         Bandranges (emin - emax) and occupancy:
:BAN00027:  27    0.041199    0.159579  1.00000000
:BAN00028:  28    0.078565    0.179529  1.00000000
:BAN00029:  29    0.122044    0.184308  1.00000000
:BAN00030:  30    0.139311    0.229683  1.00000000
:BAN00031:  31    0.190107    0.231656  1.00000000
:BAN00032:  32    0.197833    0.248300  1.00000000
:BAN00033:  33    0.234993    0.388884  1.00000000
:BAN00034:  34    0.252239    0.388884  1.00000000
:BAN00035:  35    0.260845    0.436199  1.00000000
:BAN00036:  36    0.334727    0.491718  1.00000000
:BAN00037:  37    0.338211    0.491718  0.99999998
:BAN00038:  38    0.492817    0.540551  0.00000000
:BAN00039:  39    0.528281    0.573848  0.00000000
:BAN00040:  40    0.528281    0.578731  0.00000000
:BAN00041:  41    0.579182    0.655817  0.00000000
:BAN00042:  42    0.595834    0.668973  0.00000000
        Energy to separate low and high energystates:   -0.00880


:NOE  : NUMBER OF ELECTRONS          =  74.000

:FER  : F E R M I - ENERGY(TETRAH.M.)=   0.4914661177
:GMA  : POTENTIAL AND CHARGE CUT-OFF  12.00 Ry**.5
 
 
 
 
:POS001: ATOM   -1 X,Y,Z = 0.00000 0.00000 0.00000  MULT= 1  ZZ= 25.000  Mnfloor
 
       LMMAX  7
       LM=   0 0  2 0  4 0  4 3  6 0  6 3  6 6
 
:CHA001: TOTAL VALENCE CHARGE INSIDE SPHERE   1 =   8.9870    (RMT=  2.5000 )
:PCS001: PARTIAL CHARGES SPHERE =  1 S,P,D,F,PZ,PXY, D-Z2,D-XY,X2Y2,D-XZ,YZ
:QTL001: 1.1767 3.1610 4.6388 0.0089 1.0566 2.1043 0.0000 0.9122 1.8553 1.8713 0.0000 0.0000
        Q-s-low E-s-low   Q-p-low E-p-low   Q-d-low E-d-low   Q-f-low E-f-low
:EPL001:  1.0200 -5.4609    3.0112 -3.2502    0.0189 -0.3592    0.0011 -0.5039
        Q-s-hi  E-s-hi    Q-p-hi  E-p-hi    Q-d-hi  E-d-hi    Q-f-hi  E-f-hi
:EPH001:  0.1567  0.1472    0.1499  0.2509    4.6199  0.2384    0.0077  0.3086
:VZZ001: EFG INSIDE SPHERE   1 =    -0.044721      UP TO R =   2.50000
 
 
 
 
:POS002: ATOM   -2 X,Y,Z = 0.33333 0.66667 0.75000  MULT= 2  ZZ= 52.000  Te
 
       LMMAX 12
       LM=   0 0  1 0  2 0  3 0  3 3  4 0  4 3  5 0  5 3  6 0  6 3  6 6
 
:CHA002: TOTAL VALENCE CHARGE INSIDE SPHERE   2 =   9.8607    (RMT=  2.5000 )
:PCS002: PARTIAL CHARGES SPHERE =  2 S,P,D,F,PZ,PXY, D-Z2,D-XY,X2Y2,D-XZ,YZ
:QTL002: 0.7182 4.1299 5.0064 0.0053 1.3828 2.7469 0.0000 0.9999 2.0027 2.0038 0.0000 0.0000
        Q-s-low E-s-low   Q-p-low E-p-low   Q-d-low E-d-low   Q-f-low E-f-low
:EPL002:  0.6714 -0.3532    3.0020 -7.5350    4.9810 -2.2044    0.0000 10.0000
        Q-s-hi  E-s-hi    Q-p-hi  E-p-hi    Q-d-hi  E-d-hi    Q-f-hi  E-f-hi
:EPH002:  0.0467  0.2508    1.1278  0.2605    0.0253  0.2767    0.0049  0.2713
:VZZ002: EFG INSIDE SPHERE   2 =    -2.728660      UP TO R =   2.50000
 
 
 
 
:POS003: ATOM   -3 X,Y,Z = 0.00000 0.00000 0.50000  MULT= 1  ZZ= 25.000  Mnmid
 
       LMMAX  7
       LM=   0 0  2 0  4 0  4 3  6 0  6 3  6 6
 
:CHA003: TOTAL VALENCE CHARGE INSIDE SPHERE   3 =   4.7759    (RMT=  2.5000 )
:PCS003: PARTIAL CHARGES SPHERE =  3 S,P,D,F,PZ,PXY, D-Z2,D-XY,X2Y2,D-XZ,YZ
:QTL003: 1.1258 3.1252 0.5147 0.0087 1.0438 2.0814 0.0000 0.0543 0.1816 0.2789 0.0000 0.0000
        Q-s-low E-s-low   Q-p-low E-p-low   Q-d-low E-d-low   Q-f-low E-f-low
:EPL003:  1.0149 -5.1159    3.0071 -2.8864    0.0109 -0.3744    0.0011 -0.5083
        Q-s-hi  E-s-hi    Q-p-hi  E-p-hi    Q-d-hi  E-d-hi    Q-f-hi  E-f-hi
:EPH003:  0.1109  0.1740    0.1179  0.2596    0.5037  0.3366    0.0076  0.3114
:VZZ003: EFG INSIDE SPHERE   3 =    -0.335037      UP TO R =   2.50000
 
:CHA  : TOTAL VALENCE CHARGE INSIDE UNIT CELL =      37.000000
 
:SUM  : SUM OF EIGENVALUES =         -94.556037288
 
:GAP (global)   :    0.0    Ry =     0.0   eV (metal)
:GAP (this spin):    0.0    Ry =     0.0   eV (metal)
         Bandranges (emin - emax) and occupancy:
:BAN00027:  27    0.041199    0.159579  1.00000000
:BAN00028:  28    0.078565    0.179530  1.00000000
:BAN00029:  29    0.122044    0.184308  1.00000000
:BAN00030:  30    0.139311    0.229683  1.00000000
:BAN00031:  31    0.190107    0.231656  1.00000000
:BAN00032:  32    0.197833    0.248300  1.00000000
:BAN00033:  33    0.234993    0.388884  1.00000000
:BAN00034:  34    0.252239    0.388884  1.00000000
:BAN00035:  35    0.260845    0.436199  1.00000000
:BAN00036:  36    0.334727    0.491718  1.00000000
:BAN00037:  37    0.338212    0.491718  0.99999999
:BAN00038:  38    0.492817    0.540551  0.00000000
:BAN00039:  39    0.528281    0.573848  0.00000000
:BAN00040:  40    0.528281    0.578731  0.00000000
:BAN00041:  41    0.579182    0.655817  0.00000000
:BAN00042:  42    0.595834    0.668973  0.00000000
        Energy to separate low and high energystates:   -0.00880


:NOE  : NUMBER OF ELECTRONS          =  74.000

:FER  : F E R M I - ENERGY(TETRAH.M.)=   0.4914661177
:GMA  : POTENTIAL AND CHARGE CUT-OFF  12.00 Ry**.5
 
 
 
 
:POS001: ATOM   -1 X,Y,Z = 0.00000 0.00000 0.00000  MULT= 1  ZZ= 25.000  Mnfloor
 
       LMMAX  7
       LM=   0 0  2 0  4 0  4 3  6 0  6 3  6 6
 
:CHA001: TOTAL VALENCE CHARGE INSIDE SPHERE   1 =   4.7760    (RMT=  2.5000 )
:PCS001: PARTIAL CHARGES SPHERE =  1 S,P,D,F,PZ,PXY, D-Z2,D-XY,X2Y2,D-XZ,YZ
:QTL001: 1.1258 3.1253 0.5147 0.0087 1.0438 2.0814 0.0000 0.0543 0.1816 0.2789 0.0000 0.0000
        Q-s-low E-s-low   Q-p-low E-p-low   Q-d-low E-d-low   Q-f-low E-f-low
:EPL001:  1.0148 -5.1159    3.0072 -2.8864    0.0108 -0.3742    0.0011 -0.5084
        Q-s-hi  E-s-hi    Q-p-hi  E-p-hi    Q-d-hi  E-d-hi    Q-f-hi  E-f-hi
:EPH001:  0.1110  0.1739    0.1180  0.2596    0.5038  0.3366    0.0076  0.3115
:VZZ001: EFG INSIDE SPHERE   1 =    -0.335037      UP TO R =   2.50000
 
 
 
 
:POS002: ATOM   -2 X,Y,Z = 0.33333 0.66667 0.75000  MULT= 2  ZZ= 52.000  Te
 
       LMMAX 12
       LM=   0 0  1 0  2 0  3 0  3 3  4 0  4 3  5 0  5 3  6 0  6 3  6 6
 
:CHA002: TOTAL VALENCE CHARGE INSIDE SPHERE   2 =   9.8607    (RMT=  2.5000 )
:PCS002: PARTIAL CHARGES SPHERE =  2 S,P,D,F,PZ,PXY, D-Z2,D-XY,X2Y2,D-XZ,YZ
:QTL002: 0.7183 4.1298 5.0065 0.0053 1.3828 2.7471 0.0000 0.9999 2.0027 2.0038 0.0000 0.0000
        Q-s-low E-s-low   Q-p-low E-p-low   Q-d-low E-d-low   Q-f-low E-f-low
:EPL002:  0.6714 -0.3532    3.0020 -7.5350    4.9810 -2.2044    0.0000 10.0000
        Q-s-hi  E-s-hi    Q-p-hi  E-p-hi    Q-d-hi  E-d-hi    Q-f-hi  E-f-hi
:EPH002:  0.0465  0.2508    1.1278  0.2605    0.0254  0.2767    0.0049  0.2713
:VZZ002: EFG INSIDE SPHERE   2 =    -2.728659      UP TO R =   2.50000
 
 
 
 
:POS003: ATOM   -3 X,Y,Z = 0.00000 0.00000 0.50000  MULT= 1  ZZ= 25.000  Mnmid
 
       LMMAX  7
       LM=   0 0  2 0  4 0  4 3  6 0  6 3  6 6
 
:CHA003: TOTAL VALENCE CHARGE INSIDE SPHERE   3 =   8.9869    (RMT=  2.5000 )
:PCS003: PARTIAL CHARGES SPHERE =  3 S,P,D,F,PZ,PXY, D-Z2,D-XY,X2Y2,D-XZ,YZ
:QTL003: 1.1766 3.1610 4.6389 0.0089 1.0567 2.1044 0.0000 0.9123 1.8552 1.8714 0.0000 0.0000
        Q-s-low E-s-low   Q-p-low E-p-low   Q-d-low E-d-low   Q-f-low E-f-low
:EPL003:  1.0199 -5.4609    3.0112 -3.2502    0.0189 -0.3594    0.0011 -0.5039
        Q-s-hi  E-s-hi    Q-p-hi  E-p-hi    Q-d-hi  E-d-hi    Q-f-hi  E-f-hi
:EPH003:  0.1567  0.1471    0.1498  0.2509    4.6201  0.2384    0.0076  0.3085
:VZZ003: EFG INSIDE SPHERE   3 =    -0.044720      UP TO R =   2.50000
 
:CHA  : TOTAL VALENCE CHARGE INSIDE UNIT CELL =      37.000000
 
:SUM  : SUM OF EIGENVALUES =         -94.556037146
 

        1.ATOM      Mnfloor               4 CORE STATES
:1S 001: 1S                -471.520093910 Ry
:2S 001: 2S                 -53.784051099 Ry
:2PP001: 2P*                -45.918028734 Ry
:2P 001: 2P                 -45.152928471 Ry

        2.ATOM      Te                   10 CORE STATES
       CORE-FORCE in mRy/a.u. = |F|      Fx             Fy             Fz
:FCO002:   2.ATOM      0.284809528102      0.000000000000      0.000000000000     -0.284809528102

:1S 002: 1S               -2322.197703549 Ry
:2S 002: 2S                -355.259049188 Ry
:2PP002: 2P*               -332.783277550 Ry
:2P 002: 2P                -312.608597002 Ry
:3S 002: 3S                 -70.008914321 Ry
:3PP002: 3P*                -60.770852560 Ry
:3P 002: 3P                 -57.010735980 Ry
:3DD002: 3D*                -40.722169499 Ry
:3D 002: 3D                 -39.935960405 Ry
:4S 002: 4S                 -11.212345333 Ry

        3.ATOM      Mnmid                 4 CORE STATES
:1S 003: 1S                -471.520953168 Ry
:2S 003: 2S                 -53.633204723 Ry
:2PP003: 2P*                -45.805403305 Ry
:2P 003: 2P                 -45.037194573 Ry

        1.ATOM      Mnfloor               4 CORE STATES
:1S 001: 1S                -471.520953225 Ry
:2S 001: 2S                 -53.633204780 Ry
:2PP001: 2P*                -45.805403363 Ry
:2P 001: 2P                 -45.037194631 Ry

        2.ATOM      Te                   10 CORE STATES
       CORE-FORCE in mRy/a.u. = |F|      Fx             Fy             Fz
:FCO002:   2.ATOM      0.284978828287      0.000000000000      0.000000000000      0.284978828287

:1S 002: 1S               -2322.197703549 Ry
:2S 002: 2S                -355.259049188 Ry
:2PP002: 2P*               -332.783277550 Ry
:2P 002: 2P                -312.608597002 Ry
:3S 002: 3S                 -70.008914321 Ry
:3PP002: 3P*                -60.770852560 Ry
:3P 002: 3P                 -57.010735981 Ry
:3DD002: 3D*                -40.722169499 Ry
:3D 002: 3D                 -39.935960405 Ry
:4S 002: 4S                 -11.212345333 Ry

        3.ATOM      Mnmid                 4 CORE STATES
:1S 003: 1S                -471.520093853 Ry
:2S 003: 2S                 -53.784051041 Ry
:2PP003: 2P*                -45.918028676 Ry
:2P 003: 2P                 -45.152928413 Ry
:CINT001 Core Integral Atom   1 Up    5.000000 Dn   5.000000 Total  10.000000
:CINT002 Core Integral Atom   2 Up   14.999984 Dn  14.999984 Total  29.999968
:CINT003 Core Integral Atom   3 Up    5.000000 Dn   5.000000 Total  10.000000

       DENSITY AT NUCLEUS
        JATOM        VALENCE       SEMI-CORE          CORE           TOTAL
:RTO001:   1      162.781754        0.000000    13171.096893    13333.878647
:RTO002:   2      159.937361        0.000000   322100.929532   322260.866893
:RTO003:   3      162.781747        0.000000    13171.096893    13333.878641

       HYPERFINE FIELDS FOR THOMSON RADIUS
:HFF001:          786.712           0.000        -998.953        -212.241 (KGAUSS)
:HFF002:            0.000           0.000           0.000           0.000 (KGAUSS)
:HFF003:         -786.712           0.000         998.953         212.242 (KGAUSS)
     
       CHARGES OF NEW CHARGE DENSITY
:NTO   : INTERSTITIAL     UP =     3.515665 DN =     3.515665 TOT =     7.031330
:NPC   : INTERSTITIAL     UP =     7.996034 DN =     7.996034 TOT =    15.992068
:NTO001: CHARGE SPHERE  1 UP =    13.986972 DN =     9.775981 TOT =    23.762953
:NTO002: CHARGE SPHERE  2 UP =    24.860674 DN =    24.860674 TOT =    49.721348
:NTO003: CHARGE SPHERE  3 UP =     9.775981 DN =    13.986972 TOT =    23.762953

:NEC01: NUCLEAR AND ELECTRONIC CHARGE    154.00000   153.99993
     
       CHARGES OF OLD CHARGE DENSITY
:OTO   : INTERSTITIAL     UP =     3.513363 DN =     3.513363 TOT =     7.026726
:OPC   : INTERSTITIAL     UP =     9.537628 DN =     9.537627 TOT =    19.075254
:OTO001: CHARGE SPHERE  1 UP =    14.276360 DN =     9.476741 TOT =    23.753102
:OTO002: CHARGE SPHERE  2 UP =    24.866768 DN =    24.866768 TOT =    49.733535
:OTO003: CHARGE SPHERE  3 UP =     9.476741 DN =    14.276360 TOT =    23.753102

:NEC02: NUCLEAR AND ELECTRONIC CHARGE    154.00000   154.00000
     
       CONVERGENCE TEST
:DTO001: DIFFERENCE SPHERE  1 UP =  0.2496831 DN =  0.3230509 TOT =  0.5727340
:DTO002: DIFFERENCE SPHERE  2 UP =  0.0976730 DN =  0.0976730 TOT =  0.1953459
:DTO003: DIFFERENCE SPHERE  3 UP =  0.3230507 DN =  0.2496834 TOT =  0.5727341

:DIS  :  CHARGE DISTANCE       ( 0.3230509 for atom    1 spin 2)      0.7680800
 
******************************************************
* MULTISECANT MIXING VER9 RELEASE 9.4.1              *
* Slow Mode, cautious                                *
* Fixed density scale                                *
* Regularization       1.000E-04                     *
* Step Trust Radius    0.75000                       *
* Trust Upper Limit    2.000E+00                     *
* Max Number of Memory Steps   12                    *
******************************************************
 
:PWTMP   3.7821E+02  5.0000E+02  6.4001E+02
:PLANE:  PW TOTAL      5.9579 DISTAN   1.95E+00  3.28E+01 %
:CHARG:  CLM/ATOM    266.9179 DISTAN   2.13E-01  7.97E-02 %
 
Step History
        DMIX         DMIXT        Red     Pred      Trust     Lambda    MagRel    MagAbs     Beta
  1   3.5000E-02   3.5000E-02 -1.00E+00  1.00E+00 -1.00E+01  1.00E+00  3.50E-02  3.50E-02  1.00E+00
  2   2.5000E-02   2.5000E-02 -1.00E+00  1.00E+00 -1.00E+01  1.00E+00  2.50E-02  2.98E-02  1.00E+00
:JACOBIANS    3.227E-01   8.128E-02
  
:TRUST:  Step 5.18E-02  Charge 5.00E-02 (e) CTO  2.50E-01 (e) PW  3.50E-01 (e)
:DIRM :  MEMORY  1/12 SCALE   1.000
:MIX  :   PRATT  REGULARIZATION:  1.00E-04 GREED: 0.05182  Expand 2.07  0.0518 Step           
     
       CHARGES OF MIXED CHARGE DENSITY
:CTO   : INTERSTITIAL     UP =     3.513377 DN =     3.513376 TOT =     7.026753
:CPC   : INTERSTITIAL     UP =     9.270880 DN =     9.270871 TOT =    18.541751
:CTO001: CHARGE SPHERE  1 UP =    14.226542 DN =     9.529243 TOT =    23.755786
:CTO002: CHARGE SPHERE  2 UP =    24.865419 DN =    24.865419 TOT =    49.730838
:CTO003: CHARGE SPHERE  3 UP =     9.529244 DN =    14.226542 TOT =    23.755786

       SPIN MAGNETIC MOMENTS OF MIXED CHARGE DENSITY
:MMINT:  MAGNETIC MOMENT IN INTERSTITIAL  =    0.00000
:MMI001: MAGNETIC MOMENT IN SPHERE   1    =    4.69730
:MMI002: MAGNETIC MOMENT IN SPHERE   2    =   -0.00000
:MMI003: MAGNETIC MOMENT IN SPHERE   3    =   -4.69730
:MMTOT:  SPIN MAGNETIC MOMENT IN CELL     =   -0.00000

:NEC03: NUCLEAR AND ELECTRONIC CHARGE    154.00000   154.00000

PW CHANGE     H    K    L      Current       Change    Residue
:PUP001:      0    0    0  1.99749562E-02 -4.168E-04 -2.405E-03
:PUP002:      0    0   -1  4.10071207E-03 -3.784E-04 -2.164E-03
:PUP003:     -1    0    0 -2.98504541E-03  1.920E-04  1.107E-03
:PUP004:      0    0   -2 -6.53392930E-03  2.591E-04  1.503E-03
:PUP005:     -1    0   -1  3.48150020E-02 -1.821E-03 -1.049E-02
:PUP006:     -1    0    1 -2.00321657E-02  3.570E-04  2.122E-03
:PUP007:     -1    0   -2  1.58763465E-02 -1.153E-03 -6.662E-03
:PUP008:     -1    0    2  1.59371925E-02 -1.100E-03 -6.353E-03
:PUP009:      0    0   -3  1.11514418E-03 -1.460E-04 -8.329E-04
:PUP010:     -2    1    0  1.55276879E-02 -1.491E-03 -8.624E-03
:PUP011:     -2    1   -1  4.71319675E-03 -8.426E-04 -4.822E-03
:PUP012:     -1    0   -3 -4.36237264E-03  4.554E-04  2.657E-03
  
:PDN001:      0    0    0  1.99749420E-02 -4.168E-04 -2.405E-03
:PDN002:      0    0   -1 -4.10071232E-03  3.784E-04  2.164E-03
:PDN003:     -1    0    0 -2.98500169E-03  1.920E-04  1.107E-03
:PDN004:      0    0   -2 -6.53390266E-03  2.591E-04  1.503E-03
:PDN005:     -1    0   -1  2.00320988E-02 -3.571E-04 -2.122E-03
:PDN006:     -1    0    1 -3.48149481E-02  1.821E-03  1.049E-02
:PDN007:     -1    0   -2  1.59371805E-02 -1.100E-03 -6.353E-03
:PDN008:     -1    0    2  1.58763174E-02 -1.153E-03 -6.662E-03
:PDN009:      0    0   -3 -1.11514861E-03  1.460E-04  8.329E-04
:PDN010:     -2    1    0  1.55276433E-02 -1.491E-03 -8.624E-03
:PDN011:     -2    1   -1 -4.71319264E-03  8.426E-04  4.822E-03
:PDN012:     -1    0   -3 -7.93900176E-03  1.231E-03  7.098E-03

:ENE  : ********** TOTAL ENERGY IN Ry =       -31822.01487688

       TOTAL FORCE IN mRy/a.u. = |F|     Fx             Fy             Fz     with/without FOR in case.in2
:FOR001:   1.ATOM          0.000          0.000          0.000          0.000 partial forces
:FOR002:   2.ATOM          0.000          0.000          0.000         -0.000 partial forces
:FOR003:   3.ATOM          0.000          0.000          0.000          0.000 partial forces
       TOTAL FORCE WITH RESPECT TO GLOBAL CARTESIAN COORDINATES:
:FCA001:   1.ATOM                         0.000          0.000          0.000 partial forces
:FCA002:   2.ATOM                         0.000          0.000         -0.000 partial forces
:FCA003:   3.ATOM                         0.000          0.000          0.000 partial forces
       TOTAL FORCE WITH RESPECT TO THE GLOBAL COORDINATE SYSTEM:
:FGL001:   1.ATOM                 0.000000000     0.000000000     0.000000000 partial forces
:FGL002:   2.ATOM                 0.000000000     0.000000000    -0.000043724 partial forces
:FGL003:   3.ATOM                 0.000000000     0.000000000     0.000000000 partial forces
 Flat Integration
 New Mode for Coulomb Integral
 Consistent 3/8+Simpson combinations
 Extension of core to zero
 LDM version in phi
 Fifth-order quadrature in outwin


            ---------
:ITE003:  3. ITERATION
            ---------

:NATO :    3 INDEPENDENT AND    4 TOTAL ATOMS IN UNITCELL
       SUBSTANCE: Title                                                       

       LATTICE                      = H   
:POT  : POTENTIAL OPTION EX_PBE EC_PBE VX_PBE VC_PBE
:LAT  : LATTICE CONSTANTS=  7.78058  7.78058 12.20773
:VOL  : UNIT CELL VOLUME =     640.01424
       MODE OF CALCULATION IS       = RELA
       SPINPOLARIZED CALCULATION
:IFFT  : FFT-parameters:   60   60   96 Factor: 2.00
       ATOMNUMBER=  1 Mnfloor    VCOUL-ZERO =  0.42467E+00
:EFG001:                        EFG         =    -0.05753   *10**21  V / m**2
                               V20  TOT/SRF=    -0.04983     0.02210
                               V22  TOT/SRF=     0.00000     0.00000
                               V22M TOT/SRF=     0.00000     0.00000
                               V21  TOT/SRF=     0.00000     0.00000
                               V21M TOT/SRF=     0.00000     0.00000

              0.02877    0.00000    0.00000        0.02877    0.00000    0.00000
              0.00000    0.02877    0.00000        0.00000    0.02877    0.00000
              0.00000    0.00000   -0.05753        0.00000    0.00000   -0.05753

         MAIN DIRECTIONS OF THE EFG   1.0000  0.0000  0.0000
                                      0.0000  1.0000  0.0000
                                      0.0000  0.0000  1.0000
:ANG001:  ANGLE WITH OLD X-AXIS =         0.0

:ETA001:                         ASYMM. ETA =     0.00000


       ATOMNUMBER=  2 Te         VCOUL-ZERO =  0.32209E+00
:EFG002:                        EFG         =    -1.06953   *10**21  V / m**2
                               V20  TOT/SRF=    -0.92624    -0.00758
                               V22  TOT/SRF=     0.00000     0.00000
                               V22M TOT/SRF=     0.00000     0.00000
                               V21  TOT/SRF=     0.00000     0.00000
                               V21M TOT/SRF=     0.00000     0.00000

              0.53476    0.00000    0.00000        0.53476    0.00000    0.00000
              0.00000    0.53476    0.00000        0.00000    0.53476    0.00000
              0.00000    0.00000   -1.06953        0.00000    0.00000   -1.06953

         MAIN DIRECTIONS OF THE EFG   1.0000  0.0000  0.0000
                                      0.0000  1.0000  0.0000
                                      0.0000  0.0000  1.0000
:ANG002:  ANGLE WITH OLD X-AXIS =         0.0

:ETA002:                         ASYMM. ETA =     0.00000


       ATOMNUMBER=  3 Mnmid      VCOUL-ZERO =  0.42467E+00
:EFG003:                        EFG         =    -0.05753   *10**21  V / m**2
                               V20  TOT/SRF=    -0.04983     0.02210
                               V22  TOT/SRF=     0.00000     0.00000
                               V22M TOT/SRF=     0.00000     0.00000
                               V21  TOT/SRF=     0.00000     0.00000
                               V21M TOT/SRF=     0.00000     0.00000

              0.02877    0.00000    0.00000        0.02877    0.00000    0.00000
              0.00000    0.02877    0.00000        0.00000    0.02877    0.00000
              0.00000    0.00000   -0.05753        0.00000    0.00000   -0.05753

         MAIN DIRECTIONS OF THE EFG   1.0000  0.0000  0.0000
                                      0.0000  1.0000  0.0000
                                      0.0000  0.0000  1.0000
:ANG003:  ANGLE WITH OLD X-AXIS =         0.0

:ETA003:                         ASYMM. ETA =     0.00000


     HELLMANN-FEYNMAN-FORCE IN mRy/a.u. = |F|  Fx       Fy             Fz
:FHF001:   1.ATOM      0.000000000000      0.000000000000      0.000000000000      0.000000000000

     HELLMANN-FEYNMAN-FORCE IN mRy/a.u. = |F|  Fx       Fy             Fz
:FHF002:   2.ATOM      0.002711782387      0.000000000000      0.000000000000     -0.002711782387

     HELLMANN-FEYNMAN-FORCE IN mRy/a.u. = |F|  Fx       Fy             Fz
:FHF003:   3.ATOM      0.000000000000      0.000000000000      0.000000000000      0.000000000000

:FIT001: LUSE= 13 SIGMA OF V-XC FIT FOR ATOM  1  0.5607049E-02
:FIT001: LUSE= 13 SIGMA OF V-XC FIT FOR ATOM  1  0.1038064E-01
:FIT002: LUSE= 13 SIGMA OF V-XC FIT FOR ATOM  2  0.4186492E-03
:FIT002: LUSE= 13 SIGMA OF V-XC FIT FOR ATOM  2  0.4186475E-03
:FIT003: LUSE= 13 SIGMA OF V-XC FIT FOR ATOM  3  0.1038063E-01
:FIT003: LUSE= 13 SIGMA OF V-XC FIT FOR ATOM  3  0.5607042E-02
:DEN  : DENSITY INTEGRAL  =        -12616.03343350   (Ry)
       ELS_POTENTIAL_AT Z=0 and Z=0.5:   0.02063   0.02063
       ELS_POTENTIAL_AT Y=0 and Y=0.5:   0.00000   0.00000
:VZERO:v0,v0c,v0x  -0.68206   0.02063  -0.70269 v5,v5c,v5x  -0.60937   0.02063  -0.63000
:VZERY:v0,v0c,v0x  -0.71237   0.00000  -0.71237 v5,v5c,v5x  -0.71237   0.00000  -0.71237
:VZERX:v0,v0c,v0x  -1.14648  -0.37813  -0.76835 v5,v5c,v5x  -0.32254   0.37694  -0.69948
:LMAX-WF:   10   Non-Spherical LMAX:   4

          ATOMIC SPHERE DEPENDENT PARAMETERS FOR ATOM  Mnfloor   
:e__0001: OVERALL ENERGY PARAMETER IS    0.2920
          OVERALL BASIS SET ON ATOM IS LAPW
:E0_0001: E( 0)=    0.2920
             APW+lo
:E0_0001: E( 0)=   -5.5481   E(BOTTOM)=   -5.559   E(TOP)=   -5.537  2  3   158
             LOCAL ORBITAL
:E1_0001: E( 1)=    0.2920
             APW+lo
:E1_0001: E( 1)=   -3.2561   E(BOTTOM)=   -3.289   E(TOP)=   -3.223  1  2   153
             LOCAL ORBITAL
:E2_0001: E( 2)=    0.2221   E(BOTTOM)=    0.006   E(TOP)=    0.438  0  1   124
             APW+lo

          ATOMIC SPHERE DEPENDENT PARAMETERS FOR ATOM  Te        
:e__0002: OVERALL ENERGY PARAMETER IS    0.2920
          OVERALL BASIS SET ON ATOM IS LAPW
:E1_0002: E( 1)=    0.2920
             APW+lo
:E1_0002: E( 1)=   -7.5527   E(BOTTOM)=   -7.557   E(TOP)=   -7.549  2  3   133
             LOCAL ORBITAL
:E2_0002: E( 2)=    0.2920
             APW+lo
:E2_0002: E( 2)=   -2.2263   E(BOTTOM)=   -2.280   E(TOP)=   -2.172  1  2   143
             LOCAL ORBITAL
:E0_0002: E( 0)=    0.6920
             APW+lo
:E0_0002: E( 0)=   -0.0765   E(BOTTOM)=   -1.084   E(TOP)=    0.931  4  5   202
             LOCAL ORBITAL

          ATOMIC SPHERE DEPENDENT PARAMETERS FOR ATOM  Mnmid     
:e__0003: OVERALL ENERGY PARAMETER IS    0.2920
          OVERALL BASIS SET ON ATOM IS LAPW
:E0_0003: E( 0)=    0.2920
             APW+lo
:E0_0003: E( 0)=   -5.1810   E(BOTTOM)=   -5.193   E(TOP)=   -5.169  2  3   154
             LOCAL ORBITAL
:E1_0003: E( 1)=    0.2920
             APW+lo
:E1_0003: E( 1)=   -2.8967   E(BOTTOM)=   -2.933   E(TOP)=   -2.860  1  2   148
             LOCAL ORBITAL
:E2_0003: E( 2)=    0.5506   E(BOTTOM)=    0.303   E(TOP)=    0.798  0  1   120
             APW+lo

       K=   0.00000   0.00000   0.00000            1
:RKM  : MATRIX SIZE   749LOs:  62  RKM= 9.88  WEIGHT= 1.00  PGR:    
       EIGENVALUES ARE:
:EIG00001:      -7.5522414   -7.5522414   -7.5522393   -7.5522393   -7.5518064
:EIG00006:      -7.5518047   -5.5461041   -5.1788447   -3.2496872   -3.2487987
:EIG00011:      -3.2487987   -2.8898385   -2.8886731   -2.8886731   -2.2149568
:EIG00016:      -2.2149568   -2.2148519   -2.2148519   -2.2148400   -2.2148400
:EIG00021:      -2.2147320   -2.2147320   -2.2137466   -2.2136890   -0.4507054
:EIG00026:      -0.3399464    0.0405416    0.1833082    0.1833082    0.2413189
:EIG00031:       0.2426835    0.2426835    0.3923118    0.3923118    0.4241698
:EIG00036:       0.4241698    0.4635134    0.5438125    0.5438125    0.5570738
:EIG00041:       0.6598129    0.6598129    0.6613371    0.6724174    0.8554080
:EIG00046:       0.8554080    1.0114677    1.0114677    1.0539628    1.0669102
 
:EIG00051:       1.1207643    1.1207643    1.1236101    1.1492810    1.1653725
:EIG00056:       1.1653725    1.2010458    1.6528396    1.6528396    1.6596317
:EIG00061:       1.6988821    1.6988821    1.7168081    1.7168081    1.8394025
:EIG00066:       1.8397825    1.8397825    1.8658718
       ********************************************************

:KPT   :      NUMBER OF K-POINTS:    192
:LMAX-WF:   10   Non-Spherical LMAX:   4

          ATOMIC SPHERE DEPENDENT PARAMETERS FOR ATOM  Mnfloor   
:e__0001: OVERALL ENERGY PARAMETER IS    0.2920
          OVERALL BASIS SET ON ATOM IS LAPW
:E0_0001: E( 0)=    0.2920
             APW+lo
:E0_0001: E( 0)=   -5.1810   E(BOTTOM)=   -5.193   E(TOP)=   -5.169  2  3   192
             LOCAL ORBITAL
:E1_0001: E( 1)=    0.2920
             APW+lo
:E1_0001: E( 1)=   -2.8967   E(BOTTOM)=   -2.933   E(TOP)=   -2.860  1  2   188
             LOCAL ORBITAL
:E2_0001: E( 2)=    0.5506   E(BOTTOM)=    0.303   E(TOP)=    0.798  0  1   123
             APW+lo

          ATOMIC SPHERE DEPENDENT PARAMETERS FOR ATOM  Te        
:e__0002: OVERALL ENERGY PARAMETER IS    0.2920
          OVERALL BASIS SET ON ATOM IS LAPW
:E1_0002: E( 1)=    0.2920
             APW+lo
:E1_0002: E( 1)=   -7.5527   E(BOTTOM)=   -7.557   E(TOP)=   -7.549  2  3   133
             LOCAL ORBITAL
:E2_0002: E( 2)=    0.2920
             APW+lo
:E2_0002: E( 2)=   -2.2263   E(BOTTOM)=   -2.280   E(TOP)=   -2.172  1  2   143
             LOCAL ORBITAL
:E0_0002: E( 0)=    0.6920
             APW+lo
:E0_0002: E( 0)=   -0.0765   E(BOTTOM)=   -1.084   E(TOP)=    0.931  4  5   202
             LOCAL ORBITAL

          ATOMIC SPHERE DEPENDENT PARAMETERS FOR ATOM  Mnmid     
:e__0003: OVERALL ENERGY PARAMETER IS    0.2920
          OVERALL BASIS SET ON ATOM IS LAPW
:E0_0003: E( 0)=    0.2920
             APW+lo
:E0_0003: E( 0)=   -5.5481   E(BOTTOM)=   -5.559   E(TOP)=   -5.537  2  3   120
             LOCAL ORBITAL
:E1_0003: E( 1)=    0.2920
             APW+lo
:E1_0003: E( 1)=   -3.2561   E(BOTTOM)=   -3.289   E(TOP)=   -3.223  1  2   114
             LOCAL ORBITAL
:E2_0003: E( 2)=    0.2221   E(BOTTOM)=    0.006   E(TOP)=    0.438  0  1   123
             APW+lo

       K=   0.00000   0.00000   0.00000            1
:RKM  : MATRIX SIZE   749LOs:  62  RKM= 9.88  WEIGHT= 1.00  PGR:    
       EIGENVALUES ARE:
:EIG00001:      -7.5522414   -7.5522414   -7.5522393   -7.5522393   -7.5518064
:EIG00006:      -7.5518047   -5.5461036   -5.1788452   -3.2496867   -3.2487982
:EIG00011:      -3.2487982   -2.8898390   -2.8886735   -2.8886735   -2.2149569
:EIG00016:      -2.2149569   -2.2148519   -2.2148519   -2.2148400   -2.2148400
:EIG00021:      -2.2147320   -2.2147320   -2.2137467   -2.2136890   -0.4507054
:EIG00026:      -0.3399464    0.0405416    0.1833085    0.1833085    0.2413192
:EIG00031:       0.2426839    0.2426839    0.3923117    0.3923117    0.4241698
:EIG00036:       0.4241698    0.4635134    0.5438122    0.5438122    0.5570736
:EIG00041:       0.6598127    0.6598127    0.6613372    0.6724174    0.8554080
:EIG00046:       0.8554080    1.0114676    1.0114676    1.0539628    1.0669101
 
:EIG00051:       1.1207643    1.1207643    1.1236101    1.1492810    1.1653725
:EIG00056:       1.1653725    1.2010458    1.6528396    1.6528396    1.6596317
:EIG00061:       1.6988821    1.6988821    1.7168081    1.7168081    1.8394026
:EIG00066:       1.8397824    1.8397824    1.8658718
       ********************************************************

:KPT   :      NUMBER OF K-POINTS:    192
       Insulator, EF-inconsistency corrected
:GAP (global)   :  0.004670 Ry =     0.064 eV (accurate value if proper k-mesh)
:GAP (this spin):  0.004671 Ry =     0.064 eV (accurate value if proper k-mesh)
         Bandranges (emin - emax) and occupancy:
:BAN00027:  27    0.040542    0.164083  1.00000000
:BAN00028:  28    0.077370    0.190274  1.00000000
:BAN00029:  29    0.122308    0.192985  1.00000000
:BAN00030:  30    0.138677    0.241549  1.00000000
:BAN00031:  31    0.197604    0.243390  1.00000000
:BAN00032:  32    0.205990    0.257707  1.00000000
:BAN00033:  33    0.245695    0.392312  1.00000000
:BAN00034:  34    0.263185    0.392312  1.00000000
:BAN00035:  35    0.272205    0.433809  1.00000000
:BAN00036:  36    0.342120    0.493204  1.00000000
:BAN00037:  37    0.345193    0.493204  1.00000000
:BAN00038:  38    0.497875    0.546756  0.00000000
:BAN00039:  39    0.534639    0.580501  0.00000000
:BAN00040:  40    0.534639    0.585316  0.00000000
:BAN00041:  41    0.585453    0.659813  0.00000000
:BAN00042:  42    0.600917    0.673005  0.00000000
        Energy to separate low and high energystates:   -0.00946


:NOE  : NUMBER OF ELECTRONS          =  74.000

:FER  : F E R M I - ENERGY(TETRAH.M.)=   0.4932044520
:GMA  : POTENTIAL AND CHARGE CUT-OFF  12.00 Ry**.5
 
 
 
 
:POS001: ATOM   -1 X,Y,Z = 0.00000 0.00000 0.00000  MULT= 1  ZZ= 25.000  Mnfloor
 
       LMMAX  7
       LM=   0 0  2 0  4 0  4 3  6 0  6 3  6 6
 
:CHA001: TOTAL VALENCE CHARGE INSIDE SPHERE   1 =   8.9675    (RMT=  2.5000 )
:PCS001: PARTIAL CHARGES SPHERE =  1 S,P,D,F,PZ,PXY, D-Z2,D-XY,X2Y2,D-XZ,YZ
:QTL001: 1.1744 3.1590 4.6237 0.0089 1.0557 2.1031 0.0000 0.9085 1.8492 1.8661 0.0000 0.0000
        Q-s-low E-s-low   Q-p-low E-p-low   Q-d-low E-d-low   Q-f-low E-f-low
:EPL001:  1.0196 -5.4452    3.0107 -3.2331    0.0182 -0.3632    0.0011 -0.5061
        Q-s-hi  E-s-hi    Q-p-hi  E-p-hi    Q-d-hi  E-d-hi    Q-f-hi  E-f-hi
:EPH001:  0.1549  0.1477    0.1480  0.2497    4.6055  0.2524    0.0077  0.3080
:VZZ001: EFG INSIDE SPHERE   1 =    -0.029497      UP TO R =   2.50000
 
 
 
 
:POS002: ATOM   -2 X,Y,Z = 0.33333 0.66667 0.75000  MULT= 2  ZZ= 52.000  Te
 
       LMMAX 12
       LM=   0 0  1 0  2 0  3 0  3 3  4 0  4 3  5 0  5 3  6 0  6 3  6 6
 
:CHA002: TOTAL VALENCE CHARGE INSIDE SPHERE   2 =   9.8726    (RMT=  2.5000 )
:PCS002: PARTIAL CHARGES SPHERE =  2 S,P,D,F,PZ,PXY, D-Z2,D-XY,X2Y2,D-XZ,YZ
:QTL002: 0.7191 4.1401 5.0070 0.0053 1.3860 2.7541 0.0000 1.0000 2.0028 2.0043 0.0000 0.0000
        Q-s-low E-s-low   Q-p-low E-p-low   Q-d-low E-d-low   Q-f-low E-f-low
:EPL002:  0.6731 -0.3563    3.0020 -7.5466    4.9812 -2.2145    0.0000 10.0000
        Q-s-hi  E-s-hi    Q-p-hi  E-p-hi    Q-d-hi  E-d-hi    Q-f-hi  E-f-hi
:EPH002:  0.0459  0.2535    1.1381  0.2592    0.0258  0.2821    0.0050  0.2792
:VZZ002: EFG INSIDE SPHERE   2 =    -2.670093      UP TO R =   2.50000
 
 
 
 
:POS003: ATOM   -3 X,Y,Z = 0.00000 0.00000 0.50000  MULT= 1  ZZ= 25.000  Mnmid
 
       LMMAX  7
       LM=   0 0  2 0  4 0  4 3  6 0  6 3  6 6
 
:CHA003: TOTAL VALENCE CHARGE INSIDE SPHERE   3 =   4.7582    (RMT=  2.5000 )
:PCS003: PARTIAL CHARGES SPHERE =  3 S,P,D,F,PZ,PXY, D-Z2,D-XY,X2Y2,D-XZ,YZ
:QTL003: 1.1253 3.1249 0.4976 0.0087 1.0435 2.0815 0.0000 0.0521 0.1760 0.2695 0.0000 0.0000
        Q-s-low E-s-low   Q-p-low E-p-low   Q-d-low E-d-low   Q-f-low E-f-low
:EPL003:  1.0147 -5.1067    3.0070 -2.8771    0.0108 -0.3774    0.0011 -0.5103
        Q-s-hi  E-s-hi    Q-p-hi  E-p-hi    Q-d-hi  E-d-hi    Q-f-hi  E-f-hi
:EPH003:  0.1104  0.1732    0.1179  0.2587    0.4868  0.3365    0.0077  0.3115
:VZZ003: EFG INSIDE SPHERE   3 =    -0.319045      UP TO R =   2.50000
 
:CHA  : TOTAL VALENCE CHARGE INSIDE UNIT CELL =      37.000000
 
:SUM  : SUM OF EIGENVALUES =         -94.561631142
 
       Insulator, EF-inconsistency corrected
:GAP (global)   :  0.004670 Ry =     0.064 eV (accurate value if proper k-mesh)
:GAP (this spin):  0.004670 Ry =     0.064 eV (accurate value if proper k-mesh)
         Bandranges (emin - emax) and occupancy:
:BAN00027:  27    0.040542    0.164083  1.00000000
:BAN00028:  28    0.077370    0.190275  1.00000000
:BAN00029:  29    0.122308    0.192985  1.00000000
:BAN00030:  30    0.138677    0.241549  1.00000000
:BAN00031:  31    0.197605    0.243390  1.00000000
:BAN00032:  32    0.205990    0.257708  1.00000000
:BAN00033:  33    0.245696    0.392312  1.00000000
:BAN00034:  34    0.263185    0.392312  1.00000000
:BAN00035:  35    0.272206    0.433809  1.00000000
:BAN00036:  36    0.342120    0.493204  1.00000000
:BAN00037:  37    0.345193    0.493204  1.00000000
:BAN00038:  38    0.497875    0.546755  0.00000000
:BAN00039:  39    0.534638    0.580501  0.00000000
:BAN00040:  40    0.534638    0.585316  0.00000000
:BAN00041:  41    0.585452    0.659813  0.00000000
:BAN00042:  42    0.600917    0.673005  0.00000000
        Energy to separate low and high energystates:   -0.00946


:NOE  : NUMBER OF ELECTRONS          =  74.000

:FER  : F E R M I - ENERGY(TETRAH.M.)=   0.4932044520
:GMA  : POTENTIAL AND CHARGE CUT-OFF  12.00 Ry**.5
 
 
 
 
:POS001: ATOM   -1 X,Y,Z = 0.00000 0.00000 0.00000  MULT= 1  ZZ= 25.000  Mnfloor
 
       LMMAX  7
       LM=   0 0  2 0  4 0  4 3  6 0  6 3  6 6
 
:CHA001: TOTAL VALENCE CHARGE INSIDE SPHERE   1 =   4.7582    (RMT=  2.5000 )
:PCS001: PARTIAL CHARGES SPHERE =  1 S,P,D,F,PZ,PXY, D-Z2,D-XY,X2Y2,D-XZ,YZ
:QTL001: 1.1253 3.1250 0.4976 0.0087 1.0435 2.0814 0.0000 0.0520 0.1758 0.2697 0.0000 0.0000
        Q-s-low E-s-low   Q-p-low E-p-low   Q-d-low E-d-low   Q-f-low E-f-low
:EPL001:  1.0148 -5.1067    3.0070 -2.8771    0.0108 -0.3772    0.0011 -0.5103
        Q-s-hi  E-s-hi    Q-p-hi  E-p-hi    Q-d-hi  E-d-hi    Q-f-hi  E-f-hi
:EPH001:  0.1103  0.1732    0.1179  0.2587    0.4869  0.3366    0.0077  0.3115
:VZZ001: EFG INSIDE SPHERE   1 =    -0.319046      UP TO R =   2.50000
 
 
 
 
:POS002: ATOM   -2 X,Y,Z = 0.33333 0.66667 0.75000  MULT= 2  ZZ= 52.000  Te
 
       LMMAX 12
       LM=   0 0  1 0  2 0  3 0  3 3  4 0  4 3  5 0  5 3  6 0  6 3  6 6
 
:CHA002: TOTAL VALENCE CHARGE INSIDE SPHERE   2 =   9.8726    (RMT=  2.5000 )
:PCS002: PARTIAL CHARGES SPHERE =  2 S,P,D,F,PZ,PXY, D-Z2,D-XY,X2Y2,D-XZ,YZ
:QTL002: 0.7190 4.1400 5.0070 0.0053 1.3859 2.7539 0.0000 0.9999 2.0028 2.0043 0.0000 0.0000
        Q-s-low E-s-low   Q-p-low E-p-low   Q-d-low E-d-low   Q-f-low E-f-low
:EPL002:  0.6731 -0.3563    3.0020 -7.5466    4.9812 -2.2145    0.0000 10.0000
        Q-s-hi  E-s-hi    Q-p-hi  E-p-hi    Q-d-hi  E-d-hi    Q-f-hi  E-f-hi
:EPH002:  0.0459  0.2535    1.1380  0.2592    0.0258  0.2821    0.0051  0.2791
:VZZ002: EFG INSIDE SPHERE   2 =    -2.670088      UP TO R =   2.50000
 
 
 
 
:POS003: ATOM   -3 X,Y,Z = 0.00000 0.00000 0.50000  MULT= 1  ZZ= 25.000  Mnmid
 
       LMMAX  7
       LM=   0 0  2 0  4 0  4 3  6 0  6 3  6 6
 
:CHA003: TOTAL VALENCE CHARGE INSIDE SPHERE   3 =   8.9674    (RMT=  2.5000 )
:PCS003: PARTIAL CHARGES SPHERE =  3 S,P,D,F,PZ,PXY, D-Z2,D-XY,X2Y2,D-XZ,YZ
:QTL003: 1.1744 3.1589 4.6237 0.0090 1.0559 2.1030 0.0000 0.9084 1.8492 1.8660 0.0000 0.0000
        Q-s-low E-s-low   Q-p-low E-p-low   Q-d-low E-d-low   Q-f-low E-f-low
:EPL003:  1.0195 -5.4452    3.0108 -3.2331    0.0182 -0.3627    0.0011 -0.5061
        Q-s-hi  E-s-hi    Q-p-hi  E-p-hi    Q-d-hi  E-d-hi    Q-f-hi  E-f-hi
:EPH003:  0.1550  0.1477    0.1482  0.2497    4.6054  0.2524    0.0077  0.3082
:VZZ003: EFG INSIDE SPHERE   3 =    -0.029495      UP TO R =   2.50000
 
:CHA  : TOTAL VALENCE CHARGE INSIDE UNIT CELL =      37.000000
 
:SUM  : SUM OF EIGENVALUES =         -94.561629465
 

        1.ATOM      Mnfloor               4 CORE STATES
:1S 001: 1S                -471.502434362 Ry
:2S 001: 2S                 -53.762690996 Ry
:2PP001: 2P*                -45.897129096 Ry
:2P 001: 2P                 -45.131990177 Ry

        2.ATOM      Te                   10 CORE STATES
       CORE-FORCE in mRy/a.u. = |F|      Fx             Fy             Fz
:FCO002:   2.ATOM      0.520005368301      0.000000000000      0.000000000000     -0.520005368301

:1S 002: 1S               -2322.228352802 Ry
:2S 002: 2S                -355.283036747 Ry
:2PP002: 2P*               -332.808158356 Ry
:2P 002: 2P                -312.633172205 Ry
:3S 002: 3S                 -70.027243799 Ry
:3PP002: 3P*                -60.789402078 Ry
:3P 002: 3P                 -57.029060990 Ry
:3DD002: 3D*                -40.740959573 Ry
:3D 002: 3D                 -39.954672413 Ry
:4S 002: 4S                 -11.224493705 Ry

        3.ATOM      Mnmid                 4 CORE STATES
:1S 003: 1S                -471.503314749 Ry
:2S 003: 2S                 -53.614930337 Ry
:2PP003: 2P*                -45.786817208 Ry
:2P 003: 2P                 -45.018631960 Ry

        1.ATOM      Mnfloor               4 CORE STATES
:1S 001: 1S                -471.503315350 Ry
:2S 001: 2S                 -53.614930939 Ry
:2PP001: 2P*                -45.786817812 Ry
:2P 001: 2P                 -45.018632564 Ry

        2.ATOM      Te                   10 CORE STATES
       CORE-FORCE in mRy/a.u. = |F|      Fx             Fy             Fz
:FCO002:   2.ATOM      0.523299191392      0.000000000000      0.000000000000      0.523299191392

:1S 002: 1S               -2322.228352802 Ry
:2S 002: 2S                -355.283036747 Ry
:2PP002: 2P*               -332.808158357 Ry
:2P 002: 2P                -312.633172205 Ry
:3S 002: 3S                 -70.027243799 Ry
:3PP002: 3P*                -60.789402078 Ry
:3P 002: 3P                 -57.029060991 Ry
:3DD002: 3D*                -40.740959573 Ry
:3D 002: 3D                 -39.954672414 Ry
:4S 002: 4S                 -11.224493706 Ry

        3.ATOM      Mnmid                 4 CORE STATES
:1S 003: 1S                -471.502433760 Ry
:2S 003: 2S                 -53.762690391 Ry
:2PP003: 2P*                -45.897128489 Ry
:2P 003: 2P                 -45.131989570 Ry
:CINT001 Core Integral Atom   1 Up    5.000000 Dn   5.000000 Total  10.000000
:CINT002 Core Integral Atom   2 Up   14.999984 Dn  14.999984 Total  29.999968
:CINT003 Core Integral Atom   3 Up    5.000000 Dn   5.000000 Total  10.000000

       DENSITY AT NUCLEUS
        JATOM        VALENCE       SEMI-CORE          CORE           TOTAL
:RTO001:   1      162.609609        0.000000    13171.133617    13333.743226
:RTO002:   2      160.311960        0.000000   322102.449260   322262.761220
:RTO003:   3      162.609598        0.000000    13171.133617    13333.743215

       HYPERFINE FIELDS FOR THOMSON RADIUS
:HFF001:          769.274           0.000        -979.551        -210.277 (KGAUSS)
:HFF002:            0.000           0.000          -0.000           0.000 (KGAUSS)
:HFF003:         -769.273           0.000         979.551         210.278 (KGAUSS)
     
       CHARGES OF NEW CHARGE DENSITY
:NTO   : INTERSTITIAL     UP =     3.529185 DN =     3.529185 TOT =     7.058370
:NPC   : INTERSTITIAL     UP =     8.020208 DN =     8.020208 TOT =    16.040416
:NTO001: CHARGE SPHERE  1 UP =    13.967470 DN =     9.758209 TOT =    23.725679
:NTO002: CHARGE SPHERE  2 UP =    24.872551 DN =    24.872551 TOT =    49.745103
:NTO003: CHARGE SPHERE  3 UP =     9.758207 DN =    13.967469 TOT =    23.725677

:NEC01: NUCLEAR AND ELECTRONIC CHARGE    154.00000   153.99993
     
       CHARGES OF OLD CHARGE DENSITY
:OTO   : INTERSTITIAL     UP =     3.513377 DN =     3.513376 TOT =     7.026753
:OPC   : INTERSTITIAL     UP =     9.270880 DN =     9.270871 TOT =    18.541751
:OTO001: CHARGE SPHERE  1 UP =    14.226542 DN =     9.529243 TOT =    23.755786
:OTO002: CHARGE SPHERE  2 UP =    24.865419 DN =    24.865419 TOT =    49.730838
:OTO003: CHARGE SPHERE  3 UP =     9.529244 DN =    14.226542 TOT =    23.755786

:NEC02: NUCLEAR AND ELECTRONIC CHARGE    154.00000   154.00000
     
       CONVERGENCE TEST
:DTO001: DIFFERENCE SPHERE  1 UP =  0.2440887 DN =  0.2479811 TOT =  0.4920698
:DTO002: DIFFERENCE SPHERE  2 UP =  0.0744620 DN =  0.0744620 TOT =  0.1489241
:DTO003: DIFFERENCE SPHERE  3 UP =  0.2479796 DN =  0.2440901 TOT =  0.4920697

:DIS  :  CHARGE DISTANCE       ( 0.2479811 for atom    1 spin 2)      0.6409938
 
******************************************************
* MULTISECANT MIXING VER9 RELEASE 9.4.1              *
* Standard Mode with controls                        *
* Fixed density scale                                *
* Regularization       1.000E-04                     *
[...]
:EIG00041:       0.6458011    0.6458011    0.6599428    0.6709192    0.8516076
:EIG00046:       0.8516076    1.0090251    1.0090251    1.0527877    1.0653477
 
:EIG00051:       1.1181170    1.1181170    1.1210559    1.1485338    1.1599399
:EIG00056:       1.1599399    1.1948948    1.6447513    1.6447513    1.6564217
:EIG00061:       1.6935753    1.6935753    1.7151957    1.7151957    1.8345436
:EIG00066:       1.8429462    1.8429462    1.8655176
       ********************************************************

:KPT   :      NUMBER OF K-POINTS:    192
:GAP (global)   :    0.0    Ry =     0.0   eV (metal)
:GAP (this spin):    0.0    Ry =     0.0   eV (metal)
         Bandranges (emin - emax) and occupancy:
:BAN00028:  28    0.072320    0.208124  1.00000000
:BAN00029:  29    0.119248    0.210205  1.00000000
:BAN00030:  30    0.134368    0.257951  1.00000000
:BAN00031:  31    0.201188    0.261671  1.00000000
:BAN00032:  32    0.214378    0.272449  1.00000000
:BAN00033:  33    0.259199    0.387865  1.00000000
:BAN00034:  34    0.278069    0.387865  1.00000000
:BAN00035:  35    0.285659    0.428237  1.00000000
:BAN00036:  36    0.353275    0.494322  0.99995208
:BAN00037:  37    0.357433    0.494322  0.99997379
:BAN00038:  38    0.489300    0.537516  0.00006585
:BAN00039:  39    0.523675    0.566164  0.00000000
:BAN00040:  40    0.523675    0.572297  0.00000000
:BAN00041:  41    0.572508    0.645793  0.00000000
:BAN00042:  42    0.582171    0.656983  0.00000000
:BAN00043:  43    0.612796    0.782609  0.00000000
        Energy to separate low and high energystates:   -0.01329


:NOE  : NUMBER OF ELECTRONS          =  74.000

:FER  : F E R M I - ENERGY(TETRAH.M.)=   0.4900466497
:GMA  : POTENTIAL AND CHARGE CUT-OFF  12.00 Ry**.5
 
 
 
 
:POS001: ATOM   -1 X,Y,Z = 0.00000 0.00000 0.00000  MULT= 1  ZZ= 25.000  Mnfloor
 
       LMMAX  7
       LM=   0 0  2 0  4 0  4 3  6 0  6 3  6 6
 
:CHA001: TOTAL VALENCE CHARGE INSIDE SPHERE   1 =   8.9144    (RMT=  2.5000 )
:PCS001: PARTIAL CHARGES SPHERE =  1 S,P,D,F,PZ,PXY, D-Z2,D-XY,X2Y2,D-XZ,YZ
:QTL001: 1.1686 3.1522 4.5835 0.0086 1.0533 2.0989 0.0000 0.9011 1.8346 1.8479 0.0000 0.0000
        Q-s-low E-s-low   Q-p-low E-p-low   Q-d-low E-d-low   Q-f-low E-f-low
:EPL001:  1.0186 -5.4238    3.0102 -3.2083    0.0166 -0.3709    0.0011 -0.5122
        Q-s-hi  E-s-hi    Q-p-hi  E-p-hi    Q-d-hi  E-d-hi    Q-f-hi  E-f-hi
:EPH001:  0.1499  0.1464    0.1419  0.2438    4.5670  0.2729    0.0075  0.3020
:VZZ001: EFG INSIDE SPHERE   1 =    -0.016676      UP TO R =   2.50000
 
 
 
 
:POS002: ATOM   -2 X,Y,Z = 0.33333 0.66667 0.75000  MULT= 2  ZZ= 52.000  Te
 
       LMMAX 12
       LM=   0 0  1 0  2 0  3 0  3 3  4 0  4 3  5 0  5 3  6 0  6 3  6 6
 
:CHA002: TOTAL VALENCE CHARGE INSIDE SPHERE   2 =   9.8670    (RMT=  2.5000 )
:PCS002: PARTIAL CHARGES SPHERE =  2 S,P,D,F,PZ,PXY, D-Z2,D-XY,X2Y2,D-XZ,YZ
:QTL002: 0.7189 4.1332 5.0084 0.0053 1.3834 2.7498 0.0000 1.0004 2.0031 2.0051 0.0000 0.0000
        Q-s-low E-s-low   Q-p-low E-p-low   Q-d-low E-d-low   Q-f-low E-f-low
:EPL002:  0.6745 -0.3627    3.0019 -7.5674    4.9815 -2.2328    0.0000 10.0000
        Q-s-hi  E-s-hi    Q-p-hi  E-p-hi    Q-d-hi  E-d-hi    Q-f-hi  E-f-hi
:EPH002:  0.0442  0.2561    1.1312  0.2506    0.0268  0.2911    0.0053  0.2907
:VZZ002: EFG INSIDE SPHERE   2 =    -2.537390      UP TO R =   2.50000
 
 
 
 
:POS003: ATOM   -3 X,Y,Z = 0.00000 0.00000 0.50000  MULT= 1  ZZ= 25.000  Mnmid
 
       LMMAX  7
       LM=   0 0  2 0  4 0  4 3  6 0  6 3  6 6
 
:CHA003: TOTAL VALENCE CHARGE INSIDE SPHERE   3 =   4.8181    (RMT=  2.5000 )
:PCS003: PARTIAL CHARGES SPHERE =  3 S,P,D,F,PZ,PXY, D-Z2,D-XY,X2Y2,D-XZ,YZ
:QTL003: 1.1251 3.1250 0.5571 0.0090 1.0434 2.0816 0.0000 0.0552 0.1982 0.3038 0.0000 0.0000
        Q-s-low E-s-low   Q-p-low E-p-low   Q-d-low E-d-low   Q-f-low E-f-low
:EPL003:  1.0148 -5.1280    3.0073 -2.8983    0.0110 -0.3816    0.0011 -0.5175
        Q-s-hi  E-s-hi    Q-p-hi  E-p-hi    Q-d-hi  E-d-hi    Q-f-hi  E-f-hi
:EPH003:  0.1101  0.1675    0.1177  0.2529    0.5461  0.3344    0.0077  0.3059
:VZZ003: EFG INSIDE SPHERE   3 =    -0.329086      UP TO R =   2.50000
 
:CHA  : TOTAL VALENCE CHARGE INSIDE UNIT CELL =      36.999992
 
:SUM  : SUM OF EIGENVALUES =         -94.799167309
 
:GAP (global)   :    0.0    Ry =     0.0   eV (metal)
:GAP (this spin):    0.0    Ry =     0.0   eV (metal)
         Bandranges (emin - emax) and occupancy:
:BAN00028:  28    0.072320    0.208110  1.00000000
:BAN00029:  29    0.119246    0.210192  1.00000000
:BAN00030:  30    0.134370    0.257937  1.00000000
:BAN00031:  31    0.201184    0.261653  1.00000000
:BAN00032:  32    0.214378    0.272436  1.00000000
:BAN00033:  33    0.259188    0.387866  1.00000000
:BAN00034:  34    0.278051    0.387866  1.00000000
:BAN00035:  35    0.285641    0.428236  1.00000000
:BAN00036:  36    0.353265    0.494317  0.99995879
:BAN00037:  37    0.357423    0.494317  0.99998006
:BAN00038:  38    0.489312    0.537529  0.00006942
:BAN00039:  39    0.523690    0.566180  0.00000000
:BAN00040:  40    0.523690    0.572311  0.00000000
:BAN00041:  41    0.572523    0.645801  0.00000000
:BAN00042:  42    0.582185    0.656993  0.00000000
:BAN00043:  43    0.612803    0.782608  0.00000000
        Energy to separate low and high energystates:   -0.01329


:NOE  : NUMBER OF ELECTRONS          =  74.000

:FER  : F E R M I - ENERGY(TETRAH.M.)=   0.4900466497
:GMA  : POTENTIAL AND CHARGE CUT-OFF  12.00 Ry**.5
 
 
 
 
:POS001: ATOM   -1 X,Y,Z = 0.00000 0.00000 0.00000  MULT= 1  ZZ= 25.000  Mnfloor
 
       LMMAX  7
       LM=   0 0  2 0  4 0  4 3  6 0  6 3  6 6
 
:CHA001: TOTAL VALENCE CHARGE INSIDE SPHERE   1 =   4.8179    (RMT=  2.5000 )
:PCS001: PARTIAL CHARGES SPHERE =  1 S,P,D,F,PZ,PXY, D-Z2,D-XY,X2Y2,D-XZ,YZ
:QTL001: 1.1250 3.1251 0.5570 0.0090 1.0434 2.0816 0.0000 0.0551 0.1982 0.3038 0.0000 0.0000
        Q-s-low E-s-low   Q-p-low E-p-low   Q-d-low E-d-low   Q-f-low E-f-low
:EPL001:  1.0148 -5.1280    3.0073 -2.8983    0.0110 -0.3813    0.0011 -0.5174
        Q-s-hi  E-s-hi    Q-p-hi  E-p-hi    Q-d-hi  E-d-hi    Q-f-hi  E-f-hi
:EPH001:  0.1103  0.1675    0.1178  0.2528    0.5460  0.3344    0.0077  0.3059
:VZZ001: EFG INSIDE SPHERE   1 =    -0.329043      UP TO R =   2.50000
 
 
 
 
:POS002: ATOM   -2 X,Y,Z = 0.33333 0.66667 0.75000  MULT= 2  ZZ= 52.000  Te
 
       LMMAX 12
       LM=   0 0  1 0  2 0  3 0  3 3  4 0  4 3  5 0  5 3  6 0  6 3  6 6
 
:CHA002: TOTAL VALENCE CHARGE INSIDE SPHERE   2 =   9.8670    (RMT=  2.5000 )
:PCS002: PARTIAL CHARGES SPHERE =  2 S,P,D,F,PZ,PXY, D-Z2,D-XY,X2Y2,D-XZ,YZ
:QTL002: 0.7189 4.1331 5.0083 0.0054 1.3835 2.7498 0.0000 1.0004 2.0031 2.0051 0.0000 0.0000
        Q-s-low E-s-low   Q-p-low E-p-low   Q-d-low E-d-low   Q-f-low E-f-low
:EPL002:  0.6745 -0.3627    3.0019 -7.5674    4.9815 -2.2328    0.0000 10.0000
        Q-s-hi  E-s-hi    Q-p-hi  E-p-hi    Q-d-hi  E-d-hi    Q-f-hi  E-f-hi
:EPH002:  0.0442  0.2561    1.1311  0.2506    0.0268  0.2911    0.0053  0.2907
:VZZ002: EFG INSIDE SPHERE   2 =    -2.537066      UP TO R =   2.50000
 
 
 
 
:POS003: ATOM   -3 X,Y,Z = 0.00000 0.00000 0.50000  MULT= 1  ZZ= 25.000  Mnmid
 
       LMMAX  7
       LM=   0 0  2 0  4 0  4 3  6 0  6 3  6 6
 
:CHA003: TOTAL VALENCE CHARGE INSIDE SPHERE   3 =   8.9144    (RMT=  2.5000 )
:PCS003: PARTIAL CHARGES SPHERE =  3 S,P,D,F,PZ,PXY, D-Z2,D-XY,X2Y2,D-XZ,YZ
:QTL003: 1.1686 3.1523 4.5836 0.0086 1.0531 2.0989 0.0000 0.9011 1.8346 1.8480 0.0000 0.0000
        Q-s-low E-s-low   Q-p-low E-p-low   Q-d-low E-d-low   Q-f-low E-f-low
:EPL003:  1.0187 -5.4239    3.0102 -3.2084    0.0166 -0.3710    0.0011 -0.5122
        Q-s-hi  E-s-hi    Q-p-hi  E-p-hi    Q-d-hi  E-d-hi    Q-f-hi  E-f-hi
:EPH003:  0.1499  0.1464    0.1419  0.2439    4.5669  0.2729    0.0076  0.3017
:VZZ003: EFG INSIDE SPHERE   3 =    -0.016699      UP TO R =   2.50000
 
:CHA  : TOTAL VALENCE CHARGE INSIDE UNIT CELL =      37.000009
 
:SUM  : SUM OF EIGENVALUES =         -94.799246749
 

        1.ATOM      Mnfloor               4 CORE STATES
:1S 001: 1S                -471.523376777 Ry
:2S 001: 2S                 -53.760266837 Ry
:2PP001: 2P*                -45.898469322 Ry
:2P 001: 2P                 -45.133002590 Ry

        2.ATOM      Te                   10 CORE STATES
       CORE-FORCE in mRy/a.u. = |F|      Fx             Fy             Fz
:FCO002:   2.ATOM      1.683079080847      0.000000000000      0.000000000000     -1.683079080847

:1S 002: 1S               -2322.289140748 Ry
:2S 002: 2S                -355.320829281 Ry
:2PP002: 2P*               -332.848360551 Ry
:2P 002: 2P                -312.672468311 Ry
:3S 002: 3S                 -70.055437756 Ry
:3PP002: 3P*                -60.817909207 Ry
:3P 002: 3P                 -57.057264016 Ry
:3DD002: 3D*                -40.769220979 Ry
:3D 002: 3D                 -39.982829030 Ry
:4S 002: 4S                 -11.246031948 Ry

        3.ATOM      Mnmid                 4 CORE STATES
:1S 003: 1S                -471.524441052 Ry
:2S 003: 2S                 -53.632017983 Ry
:2PP003: 2P*                -45.802829547 Ry
:2P 003: 2P                 -45.034711242 Ry

        1.ATOM      Mnfloor               4 CORE STATES
:1S 001: 1S                -471.524409497 Ry
:2S 001: 2S                 -53.631988152 Ry
:2PP001: 2P*                -45.802799378 Ry
:2P 001: 2P                 -45.034681104 Ry

        2.ATOM      Te                   10 CORE STATES
       CORE-FORCE in mRy/a.u. = |F|      Fx             Fy             Fz
:FCO002:   2.ATOM      1.556385894475      0.000000000000      0.000000000000      1.556385894475

:1S 002: 1S               -2322.289140753 Ry
:2S 002: 2S                -355.320829284 Ry
:2PP002: 2P*               -332.848360556 Ry
:2P 002: 2P                -312.672468316 Ry
:3S 002: 3S                 -70.055437761 Ry
:3PP002: 3P*                -60.817909213 Ry
:3P 002: 3P                 -57.057264021 Ry
:3DD002: 3D*                -40.769220984 Ry
:3D 002: 3D                 -39.982829036 Ry
:4S 002: 4S                 -11.246031961 Ry

        3.ATOM      Mnmid                 4 CORE STATES
:1S 003: 1S                -471.523408343 Ry
:2S 003: 2S                 -53.760296909 Ry
:2PP003: 2P*                -45.898499676 Ry
:2P 003: 2P                 -45.133032918 Ry
:CINT001 Core Integral Atom   1 Up    5.000000 Dn   5.000000 Total  10.000000
:CINT002 Core Integral Atom   2 Up   14.999984 Dn  14.999984 Total  29.999968
:CINT003 Core Integral Atom   3 Up    5.000000 Dn   5.000000 Total  10.000000

       DENSITY AT NUCLEUS
        JATOM        VALENCE       SEMI-CORE          CORE           TOTAL
:RTO001:   1      162.527293        0.000000    13171.444852    13333.972145
:RTO002:   2      160.325295        0.000000   322105.936955   322266.262251
:RTO003:   3      162.527505        0.000000    13171.444895    13333.972400

       HYPERFINE FIELDS FOR THOMSON RADIUS
:HFF001:          667.537           0.000        -853.964        -186.428 (KGAUSS)
:HFF002:           -0.015           0.000          -0.000          -0.015 (KGAUSS)
:HFF003:         -667.548           0.000         853.966         186.418 (KGAUSS)
     
       CHARGES OF NEW CHARGE DENSITY
:NTO   : INTERSTITIAL     UP =     3.533824 DN =     3.533829 TOT =     7.067653
:NPC   : INTERSTITIAL     UP =     7.997082 DN =     7.997108 TOT =    15.994190
:NTO001: CHARGE SPHERE  1 UP =    13.914310 DN =     9.817929 TOT =    23.732238
:NTO002: CHARGE SPHERE  2 UP =    24.866911 DN =    24.866928 TOT =    49.733839
:NTO003: CHARGE SPHERE  3 UP =     9.818002 DN =    13.914360 TOT =    23.732362

:NEC01: NUCLEAR AND ELECTRONIC CHARGE    154.00000   153.99993
     
       CHARGES OF OLD CHARGE DENSITY
:OTO   : INTERSTITIAL     UP =     3.534256 DN =     3.534261 TOT =     7.068517
:OPC   : INTERSTITIAL     UP =     7.996471 DN =     7.996479 TOT =    15.992950
:OTO001: CHARGE SPHERE  1 UP =    13.914484 DN =     9.817797 TOT =    23.732281
:OTO002: CHARGE SPHERE  2 UP =    24.866733 DN =    24.866734 TOT =    49.733467
:OTO003: CHARGE SPHERE  3 UP =     9.817784 DN =    13.914483 TOT =    23.732267

:NEC02: NUCLEAR AND ELECTRONIC CHARGE    154.00000   154.00000
     
       CONVERGENCE TEST
:DTO001: DIFFERENCE SPHERE  1 UP =  0.0002344 DN =  0.0001864 TOT =  0.0004208
:DTO002: DIFFERENCE SPHERE  2 UP =  0.0004189 DN =  0.0004195 TOT =  0.0008384
:DTO003: DIFFERENCE SPHERE  3 UP =  0.0002128 DN =  0.0001806 TOT =  0.0003934

:DIS  :  CHARGE DISTANCE       ( 0.0004195 for atom    2 spin 2)      0.0012455
 
******************************************************
* MULTISECANT MIXING VER9 RELEASE 9.4.1              *
* Standard Mode with controls                        *
* Fixed density scale                                *
* Regularization       1.000E-04                     *
* Trust Upper Limit    5.000E+00                     *
* Max Number of Memory Steps    8                    *
******************************************************
 
:PWTMP   3.7821E+02  5.0000E+02  6.4001E+02
:PLANE:  PW TOTAL      4.6421 DISTAN   8.18E-04  1.76E-02 %
:CHARG:  CLM/ATOM    266.8644 DISTAN   3.25E-04  1.22E-04 %
 
Step History
        DMIX         DMIXT        Red     Pred      Trust     Lambda    MagRel    MagAbs     Beta
  3   5.1824E-02   5.1824E-02  8.28E-01  1.00E+00 -1.00E+01  9.74E-01  5.18E-02  6.05E-02  1.00E+00
  4   1.2956E-01   3.6077E-02  8.69E-01  7.74E-01  1.40E-01  9.51E-01  1.40E-01  1.35E-01  1.00E+00
  5   1.1294E-01   6.8173E-02  7.07E-01  7.04E-01  3.13E-01  9.33E-01  3.13E-01  2.63E-01  8.00E-01
  6   6.9038E-02   6.7572E-02  2.90E-01  3.14E-01  7.88E-01  8.84E-01  7.88E-01  4.67E-01  8.68E-01
  7   8.6459E-02   8.6459E-02  3.95E-01  4.14E-01  1.74E+00  2.14E-01  9.86E-01  1.69E-01  1.00E+00
  8   1.7159E-01   1.7159E-01  5.48E-01  7.00E-01  2.45E+00  8.63E-01  4.63E-01  3.14E-02  1.00E+00
  9   3.2626E-01   3.2626E-01  3.17E-01  4.86E-01  2.97E+00  6.63E-01  9.59E-01  3.57E-02  1.00E+00
 10   3.5297E-01   3.5297E-01  2.50E-01  4.27E-01  3.53E+00  1.00E+00  7.04E-01  8.29E-03  1.00E+00
 11   3.6734E-01   3.6734E-01 -1.00E+00  4.21E-01  4.19E+00  1.00E+00  4.95E-01  1.46E-03  1.00E+00
:JACOBIANS    1.102E+00   1.095E+00
  
:NORMS:  1/Froebius, Min, Max, Used   0.1039E+01  0.5379E+00  0.1255E+01  0.1175E+01
:INFO :  Number of Memory Steps    8 Skipping    2
:INFO :  SLambda=    1.0941300  Max    1.0941300

Eigenvalues, unscaled except for SY+YY
   #     SY Real        SY Imag          SS             YY         SY+YY Real      SY+YY Imag
   1   4.654513E+00   0.000000E+00   5.558480E+00   4.027261E+00   9.103324E+00   0.000000E+00
   2   2.435085E+00   0.000000E+00   2.557608E+00   2.399319E+00   5.061689E+00   0.000000E+00
   3   7.959034E-01   0.000000E+00   5.060002E-01   1.426034E+00   2.307360E+00   0.000000E+00
   4   3.432803E-02   0.000000E+00   1.037889E-02   1.213454E-01   1.667076E-01   0.000000E+00
   5   6.771559E-03   0.000000E+00   2.060374E-03   2.364295E-02   3.110295E-02   0.000000E+00
   6   8.135792E-04   0.000000E+00   2.845054E-04   2.390016E-03   3.429810E-03   0.000000E+00
   7   4.153495E-07   2.136681E-07   2.233313E-07   6.331159E-06   1.756824E-06   0.000000E+00
   8   4.153495E-07  -2.136681E-07   4.429044E-08   1.319716E-06   7.262521E-06   0.000000E+00
 
:INFO :  Singular value  9.106E+00 Weight  1.000E+00 Projection  5.848E-05
:INFO :  Singular value  5.064E+00 Weight  1.000E+00 Projection -1.201E-04
:INFO :  Singular value  2.307E+00 Weight  1.000E+00 Projection -6.044E-04
:INFO :  Singular value  1.669E-01 Weight  1.000E+00 Projection -1.461E-03
:INFO :  Singular value  3.108E-02 Weight  9.998E-01 Projection  9.553E-04
:INFO :  Singular value  3.428E-03 Weight  9.864E-01 Projection -4.736E-03
:INFO :  Singular value  7.268E-06 Weight  3.256E-04 Projection -4.271E-05
:INFO :  Singular value  1.755E-06 Weight  1.899E-05 Projection -5.443E-06
:RANK :  ACTIVE   5.99/8  =  74.83 %
 
:BLIM :  VZERO Control Off
:TRUST:  Step 4.91E+00  Charge 1.28E-02 (e) CTO  5.93E-02 (e) PW  1.48E-01 (e)
:DIRM :  MEMORY  8/8  SCALE   1.000 RED  0.36 PRED  0.42 NEXT  0.64 
:TRAVE:  Charge 1.06E-03 (e) CTO  1.27E-03 (e) PW  6.95E-03 (e)
:DIRP :  |MSR1|= 3.070E-04 |PRATT|= 4.092E-04 ANGLE=   9.4 DEGREES
:DIRQ :  |MSR1|= 8.381E-04 |PRATT|= 9.743E-04 ANGLE=  20.4 DEGREES
:DIRT :  |MSR1|= 8.925E-04 |PRATT|= 1.057E-03 ANGLE=  19.5 DEGREES
:MIX  :   MSE1   REGULARIZATION:  4.03E-04 GREED: 0.41616  Newton 1.00  0.8446                
     
       CHARGES OF MIXED CHARGE DENSITY
:CTO   : INTERSTITIAL     UP =     3.533939 DN =     3.533944 TOT =     7.067883
:CPC   : INTERSTITIAL     UP =     7.997011 DN =     7.997031 TOT =    15.994043
:CTO001: CHARGE SPHERE  1 UP =    13.914275 DN =     9.818009 TOT =    23.732284
:CTO002: CHARGE SPHERE  2 UP =    24.866863 DN =    24.866875 TOT =    49.733738
:CTO003: CHARGE SPHERE  3 UP =     9.818051 DN =    13.914306 TOT =    23.732357

       SPIN MAGNETIC MOMENTS OF MIXED CHARGE DENSITY
:MMINT:  MAGNETIC MOMENT IN INTERSTITIAL  =   -0.00000
:MMI001: MAGNETIC MOMENT IN SPHERE   1    =    4.09627
:MMI002: MAGNETIC MOMENT IN SPHERE   2    =   -0.00001
:MMI003: MAGNETIC MOMENT IN SPHERE   3    =   -4.09625
:MMTOT:  SPIN MAGNETIC MOMENT IN CELL     =   -0.00002

:NEC03: NUCLEAR AND ELECTRONIC CHARGE    154.00000   154.00000

PW CHANGE     H    K    L      Current       Change    Residue
:PUP001:      0    0    0  1.80167096E-02  3.497E-07  4.555E-07
:PUP002:      0    0   -1  2.22560241E-03  2.557E-07  3.757E-07
:PUP003:     -1    0    0 -2.10488443E-03 -8.885E-08 -3.790E-07
:PUP004:      0    0   -2 -5.21982756E-03 -1.446E-06 -1.764E-06
:PUP005:     -1    0   -1  2.60217566E-02  3.542E-06  4.228E-06
:PUP006:     -1    0    1 -1.82354661E-02 -3.275E-06 -4.577E-06
:PUP007:     -1    0   -2  1.04047933E-02  5.502E-07  5.109E-07
:PUP008:     -1    0    2  1.07547098E-02 -2.189E-07 -4.804E-07
:PUP009:      0    0   -3  4.58460703E-04  1.179E-07  4.510E-09
:PUP010:     -2    1    0  8.28846900E-03  2.496E-06  3.074E-06
:PUP011:     -2    1   -1  8.03720990E-04  1.248E-06  6.897E-07
:PUP012:     -1    0   -3 -2.10225570E-03 -5.117E-07 -8.008E-07
  
:PDN001:      0    0    0  1.80167474E-02  3.673E-07  4.826E-07
:PDN002:      0    0   -1 -2.22568764E-03 -3.593E-07 -5.381E-07
:PDN003:     -1    0    0 -2.10502109E-03 -2.419E-07 -6.176E-07
:PDN004:      0    0   -2 -5.21990144E-03 -1.508E-06 -1.860E-06
:PDN005:     -1    0   -1  1.82355620E-02  3.350E-06  4.693E-06
:PDN006:     -1    0    1 -2.60218846E-02 -3.664E-06 -4.416E-06
:PDN007:     -1    0   -2  1.07547057E-02 -2.349E-07 -5.060E-07
:PDN008:     -1    0    2  1.04048545E-02  6.073E-07  6.002E-07
:PDN009:      0    0   -3 -4.58449199E-04 -1.007E-07  2.267E-08
:PDN010:     -2    1    0  8.28848901E-03  2.521E-06  3.112E-06
:PDN011:     -2    1   -1 -8.03703013E-04 -1.227E-06 -6.562E-07
:PDN012:     -1    0   -3 -2.06350832E-03 -4.361E-07  3.289E-08

:ENE  : ********** TOTAL ENERGY IN Ry =       -31822.03201834

       TOTAL FORCE IN mRy/a.u. = |F|     Fx             Fy             Fz     with/without FOR in case.in2
:FOR001:   1.ATOM          0.000          0.000          0.000          0.000 partial forces
:FOR002:   2.ATOM          0.042          0.000          0.000          0.042 partial forces
:FOR003:   3.ATOM          0.000          0.000          0.000          0.000 partial forces
       TOTAL FORCE WITH RESPECT TO GLOBAL CARTESIAN COORDINATES:
:FCA001:   1.ATOM                         0.000          0.000          0.000 partial forces
:FCA002:   2.ATOM                         0.000          0.000          0.042 partial forces
:FCA003:   3.ATOM                         0.000          0.000          0.000 partial forces
       TOTAL FORCE WITH RESPECT TO THE GLOBAL COORDINATE SYSTEM:
:FGL001:   1.ATOM                 0.000000000     0.000000000     0.000000000 partial forces
:FGL002:   2.ATOM                 0.000000000     0.000000000     0.042223689 partial forces
:FGL003:   3.ATOM                 0.000000000     0.000000000     0.000000000 partial forces
